
    -----------------------------------------------------------------------
          Psi4: An Open-Source Ab Initio Electronic Structure Package
                               Psi4 1.3.2 release

                         Git: Rev {HEAD} ecbda83 


    R. M. Parrish, L. A. Burns, D. G. A. Smith, A. C. Simmonett,
    A. E. DePrince III, E. G. Hohenstein, U. Bozkaya, A. Yu. Sokolov,
    R. Di Remigio, R. M. Richard, J. F. Gonthier, A. M. James,
    H. R. McAlexander, A. Kumar, M. Saitow, X. Wang, B. P. Pritchard,
    P. Verma, H. F. Schaefer III, K. Patkowski, R. A. King, E. F. Valeev,
    F. A. Evangelista, J. M. Turney, T. D. Crawford, and C. D. Sherrill,
    J. Chem. Theory Comput. 13(7) pp 3185--3197 (2017).
    (doi: 10.1021/acs.jctc.7b00174)


                         Additional Contributions by
    P. Kraus, H. Kruse, M. H. Lechner, M. C. Schieber, R. A. Shaw,
    A. Alenaizan, R. Galvelis, Z. L. Glick, S. Lehtola, and J. P. Misiewicz

    -----------------------------------------------------------------------


    Psi4 started on: Sunday, 08 November 2020 08:34PM

    Process ID: 108264
    Host:       node59.bme.utexas.edu
    PSIDATADIR: /home/xy3866/psi4conda/share/psi4
    Memory:     500.0 MiB
    Threads:    8
    
  ==> Input File <==

--------------------------------------------------------------------------
#psi4
#
memory 32 gb

molecule  {
0 1
 Br       -1.8067700     0.0000000    -0.0000600
  C        0.1006220     0.0000530     0.0000060
  C        0.7815690     1.2175950     0.0000440
  C        0.7815327    -1.2175582    -0.1999900
  C        2.1776820     1.2083560     0.0000890
  C        2.1776190    -1.2084040     0.0000560
  C        2.8781420    -0.0000300     0.0000940
  H        0.2284300     2.1526090     0.0000410
  H        0.2282920    -2.1525150    -0.0000210
  H        2.7160930     2.1530860     0.0001180
  H        2.7160100    -2.1531480     0.0000600
  H        3.9651640    -0.0000500     0.0001280
units angstrom
no_reorient  #important for SAPT in psi4, default
symmetry c1  #important for SAPT in psi4, default
}

set PROPERTIES_ORIGIN ["COM"]
properties('MP2/aug-cc-pvtz', properties = ['dipole'])
--------------------------------------------------------------------------

  Memory set to  29.802 GiB by Python driver.
    SCF Algorithm Type (re)set to DF.

*** tstart() called on node59.bme.utexas.edu
*** at Sun Nov  8 20:34:34 2020

   => Loading Basis Set <=

    Name: AUG-CC-PVTZ
    Role: ORBITAL
    Keyword: BASIS
    atoms 1    entry BR         line  4204 file /home/xy3866/psi4conda/share/psi4/basis/aug-cc-pvtz.gbs 
    atoms 2-7  entry C          line   235 file /home/xy3866/psi4conda/share/psi4/basis/aug-cc-pvtz.gbs 
    atoms 8-12 entry H          line    36 file /home/xy3866/psi4conda/share/psi4/basis/aug-cc-pvtz.gbs 


         ---------------------------------------------------------
                                   SCF
               by Justin Turney, Rob Parrish, Andy Simmonett
                          and Daniel G. A. Smith
                              RHF Reference
                        8 Threads,  30517 MiB Core
         ---------------------------------------------------------

  ==> Geometry <==

    Molecular point group: c1
    Full point group: C1

    Geometry (in Angstrom), charge = 0, multiplicity = 1:

       Center              X                  Y                   Z               Mass       
    ------------   -----------------  -----------------  -----------------  -----------------
         BR          -1.640761992524    -0.000000791621     0.015334060065    78.918337600000
         C            0.266630007476     0.000052208379     0.015400060065    12.000000000000
         C            0.947577007476     1.217594208379     0.015438060065    12.000000000000
         C            0.947540707476    -1.217558991621    -0.184595939935    12.000000000000
         C            2.343690007476     1.208355208379     0.015483060065    12.000000000000
         C            2.343627007476    -1.208404791621     0.015450060065    12.000000000000
         C            3.044150007476    -0.000030791621     0.015488060065    12.000000000000
         H            0.394438007476     2.152608208379     0.015435060065     1.007825032230
         H            0.394300007476    -2.152515791621     0.015373060065     1.007825032230
         H            2.882101007476     2.153085208379     0.015512060065     1.007825032230
         H            2.882018007476    -2.153148791621     0.015454060065     1.007825032230
         H            4.131172007476    -0.000050791621     0.015522060065     1.007825032230

  Running in c1 symmetry.

  Rotational constants: A =      0.18785  B =      0.03289  C =      0.02802 [cm^-1]
  Rotational constants: A =   5631.51750  B =    986.12675  C =    840.11949 [MHz]
  Nuclear repulsion =  429.586681403084015

  Charge       = 0
  Multiplicity = 1
  Electrons    = 76
  Nalpha       = 38
  Nbeta        = 38

  ==> Algorithm <==

  SCF Algorithm Type is DF.
  DIIS enabled.
  MOM disabled.
  Fractional occupation disabled.
  Guess Type is SAD.
  Energy threshold   = 1.00e-10
  Density threshold  = 1.00e-10
  Integral threshold = 0.00e+00

  ==> Primary Basis <==

  Basis Set: AUG-CC-PVTZ
    Blend: AUG-CC-PVTZ
    Number of shells: 148
    Number of basis function: 450
    Number of Cartesian functions: 524
    Spherical Harmonics?: true
    Max angular momentum: 3

   => Loading Basis Set <=

    Name: (AUG-CC-PVTZ AUX)
    Role: JKFIT
    Keyword: DF_BASIS_SCF
    atoms 1    entry BR         line  1492 file /home/xy3866/psi4conda/share/psi4/basis/aug-cc-pvtz-jkfit.gbs 
    atoms 2-7  entry C          line   162 file /home/xy3866/psi4conda/share/psi4/basis/aug-cc-pvtz-jkfit.gbs 
    atoms 8-12 entry H          line    70 file /home/xy3866/psi4conda/share/psi4/basis/aug-cc-pvtz-jkfit.gbs 

  ==> Pre-Iterations <==

   -------------------------------------------------------
    Irrep   Nso     Nmo     Nalpha   Nbeta   Ndocc  Nsocc
   -------------------------------------------------------
     A        450     450       0       0       0       0
   -------------------------------------------------------
    Total     450     450      38      38      38       0
   -------------------------------------------------------

  ==> Integral Setup <==

  DFHelper Memory: AOs need 1.699 GiB; user supplied 22.352 GiB. Using in-core AOs.

  ==> MemDFJK: Density-Fitted J/K Matrices <==

    J tasked:                   Yes
    K tasked:                   Yes
    wK tasked:                   No
    OpenMP threads:               8
    Memory [MiB]:             22888
    Algorithm:                 Core
    Schwarz Cutoff:           1E-12
    Mask sparsity (%):       1.5289
    Fitting Condition:        1E-10

   => Auxiliary Basis Set <=

  Basis Set: (AUG-CC-PVTZ AUX)
    Blend: AUG-CC-PVTZ-JKFIT
    Number of shells: 308
    Number of basis function: 1102
    Number of Cartesian functions: 1390
    Spherical Harmonics?: true
    Max angular momentum: 4

  Minimum eigenvalue in the overlap matrix is 2.2276428112E-06.
  Using Symmetric Orthogonalization.

  SCF Guess: Superposition of Atomic Densities via on-the-fly atomic UHF.

  ==> Iterations <==

                           Total Energy        Delta E     RMS |[F,P]|

   @DF-RHF iter SAD: -2800.50561332887310   -2.80051e+03   0.00000e+00 
   @DF-RHF iter   1: -2802.33776645860053   -1.83215e+00   2.37861e-03 DIIS
   @DF-RHF iter   2: -2802.58587047469518   -2.48104e-01   1.08662e-03 DIIS
   @DF-RHF iter   3: -2802.64236125481602   -5.64908e-02   1.13364e-04 DIIS
   @DF-RHF iter   4: -2802.64415380983792   -1.79256e-03   7.25189e-05 DIIS
   @DF-RHF iter   5: -2802.64475571692265   -6.01907e-04   1.01986e-05 DIIS
   @DF-RHF iter   6: -2802.64478289696899   -2.71800e-05   5.37784e-06 DIIS
   @DF-RHF iter   7: -2802.64478893011847   -6.03315e-06   1.92866e-06 DIIS
   @DF-RHF iter   8: -2802.64479062139071   -1.69127e-06   7.05316e-07 DIIS
   @DF-RHF iter   9: -2802.64479089074166   -2.69351e-07   3.01313e-07 DIIS
   @DF-RHF iter  10: -2802.64479093403088   -4.32892e-08   1.65719e-07 DIIS
   @DF-RHF iter  11: -2802.64479094808576   -1.40549e-08   4.90917e-08 DIIS
   @DF-RHF iter  12: -2802.64479094924127   -1.15551e-09   1.68777e-08 DIIS
   @DF-RHF iter  13: -2802.64479094929402   -5.27507e-11   4.55862e-09 DIIS
   @DF-RHF iter  14: -2802.64479094930493   -1.09139e-11   1.52667e-09 DIIS
   @DF-RHF iter  15: -2802.64479094930675   -1.81899e-12   4.33617e-10 DIIS
   @DF-RHF iter  16: -2802.64479094930311    3.63798e-12   1.37298e-10 DIIS
   @DF-RHF iter  17: -2802.64479094930130    1.81899e-12   5.69336e-11 DIIS
  Energy and wave function converged.


  ==> Post-Iterations <==

    Orbital Energies [Eh]
    ---------------------

    Doubly Occupied:                                                      

       1A   -490.024863     2A    -65.164620     3A    -58.519924  
       4A    -58.518548     5A    -58.518521     6A    -11.306831  
       7A    -11.258768     8A    -11.256682     9A    -11.255910  
      10A    -11.254644    11A    -11.250070    12A     -9.837371  
      13A     -7.448940    14A     -7.442194    15A     -7.442148  
      16A     -3.192690    17A     -3.189188    18A     -3.188971  
      19A     -3.180356    20A     -3.180350    21A     -1.173182  
      22A     -1.069775    23A     -1.031164    24A     -0.973652  
      25A     -0.844334    26A     -0.815475    27A     -0.707141  
      28A     -0.643604    29A     -0.641134    30A     -0.601933  
      31A     -0.573407    32A     -0.531947    33A     -0.512462  
      34A     -0.490800    35A     -0.437942    36A     -0.416225  
      37A     -0.353116    38A     -0.334722  

    Virtual:                                                              

      39A      0.026854    40A      0.033087    41A      0.038262  
      42A      0.050399    43A      0.052991    44A      0.069403  
      45A      0.073460    46A      0.083487    47A      0.089819  
      48A      0.099618    49A      0.102681    50A      0.107717  
      51A      0.113176    52A      0.116183    53A      0.117073  
      54A      0.122664    55A      0.131185    56A      0.136564  
      57A      0.138614    58A      0.143583    59A      0.145607  
      60A      0.149680    61A      0.153195    62A      0.156075  
      63A      0.159402    64A      0.165489    65A      0.171041  
      66A      0.185769    67A      0.190104    68A      0.193655  
      69A      0.232583    70A      0.238578    71A      0.241753  
      72A      0.245894    73A      0.254907    74A      0.264871  
      75A      0.270450    76A      0.277962    77A      0.290377  
      78A      0.297945    79A      0.301360    80A      0.309329  
      81A      0.318445    82A      0.319274    83A      0.323827  
      84A      0.325258    85A      0.334181    86A      0.336237  
      87A      0.338724    88A      0.360359    89A      0.364688  
      90A      0.369102    91A      0.376224    92A      0.386463  
      93A      0.396317    94A      0.401363    95A      0.414641  
      96A      0.420666    97A      0.424748    98A      0.426917  
      99A      0.432027   100A      0.434217   101A      0.436508  
     102A      0.442674   103A      0.457808   104A      0.464925  
     105A      0.469165   106A      0.473135   107A      0.478699  
     108A      0.480000   109A      0.486108   110A      0.498745  
     111A      0.502490   112A      0.510574   113A      0.519896  
     114A      0.525006   115A      0.527702   116A      0.534064  
     117A      0.546572   118A      0.548398   119A      0.556322  
     120A      0.567474   121A      0.582482   122A      0.584944  
     123A      0.595378   124A      0.605870   125A      0.617816  
     126A      0.631404   127A      0.636253   128A      0.641914  
     129A      0.655763   130A      0.668955   131A      0.672514  
     132A      0.682068   133A      0.699536   134A      0.708173  
     135A      0.710150   136A      0.724519   137A      0.747705  
     138A      0.756627   139A      0.762584   140A      0.771588  
     141A      0.784583   142A      0.802368   143A      0.808281  
     144A      0.810087   145A      0.822395   146A      0.824805  
     147A      0.831492   148A      0.840638   149A      0.857461  
     150A      0.864221   151A      0.865665   152A      0.873085  
     153A      0.875320   154A      0.886234   155A      0.890466  
     156A      0.895895   157A      0.899290   158A      0.901278  
     159A      0.909380   160A      0.924300   161A      0.937071  
     162A      0.951606   163A      0.960268   164A      0.971679  
     165A      0.979070   166A      0.987089   167A      1.001264  
     168A      1.004197   169A      1.019069   170A      1.023249  
     171A      1.030262   172A      1.039026   173A      1.046380  
     174A      1.049078   175A      1.057032   176A      1.066167  
     177A      1.070533   178A      1.073433   179A      1.079294  
     180A      1.086345   181A      1.098310   182A      1.105194  
     183A      1.108719   184A      1.119767   185A      1.123465  
     186A      1.125011   187A      1.145944   188A      1.159741  
     189A      1.165283   190A      1.184048   191A      1.189055  
     192A      1.189830   193A      1.199650   194A      1.205797  
     195A      1.207060   196A      1.215556   197A      1.223377  
     198A      1.232053   199A      1.250391   200A      1.259093  
     201A      1.270395   202A      1.279417   203A      1.285461  
     204A      1.303002   205A      1.304039   206A      1.323583  
     207A      1.331007   208A      1.338142   209A      1.357640  
     210A      1.381649   211A      1.389423   212A      1.398040  
     213A      1.402875   214A      1.405121   215A      1.437695  
     216A      1.449876   217A      1.468812   218A      1.481222  
     219A      1.483637   220A      1.503874   221A      1.514459  
     222A      1.523102   223A      1.565520   224A      1.573817  
     225A      1.606775   226A      1.637653   227A      1.657592  
     228A      1.666841   229A      1.675395   230A      1.692091  
     231A      1.708446   232A      1.730945   233A      1.735851  
     234A      1.748714   235A      1.783670   236A      1.788452  
     237A      1.797154   238A      1.799557   239A      1.813400  
     240A      1.820015   241A      1.826305   242A      1.836441  
     243A      1.856654   244A      1.857613   245A      1.889096  
     246A      1.905724   247A      1.909012   248A      1.936951  
     249A      1.953837   250A      1.962947   251A      1.977048  
     252A      1.983264   253A      1.997008   254A      2.007418  
     255A      2.018363   256A      2.020438   257A      2.022181  
     258A      2.029349   259A      2.042536   260A      2.052939  
     261A      2.064432   262A      2.089717   263A      2.101477  
     264A      2.131059   265A      2.132940   266A      2.159190  
     267A      2.174613   268A      2.200254   269A      2.219678  
     270A      2.242921   271A      2.267449   272A      2.283227  
     273A      2.299746   274A      2.312677   275A      2.326378  
     276A      2.328839   277A      2.350910   278A      2.364665  
     279A      2.369696   280A      2.379729   281A      2.390122  
     282A      2.411001   283A      2.426977   284A      2.436226  
     285A      2.452973   286A      2.483854   287A      2.498722  
     288A      2.506130   289A      2.526718   290A      2.529475  
     291A      2.547575   292A      2.559605   293A      2.571101  
     294A      2.599248   295A      2.626846   296A      2.677402  
     297A      2.703532   298A      2.729114   299A      2.766986  
     300A      2.791183   301A      2.814454   302A      2.849729  
     303A      2.877510   304A      2.941302   305A      2.947106  
     306A      3.019662   307A      3.072986   308A      3.106700  
     309A      3.141930   310A      3.154595   311A      3.180451  
     312A      3.198613   313A      3.227190   314A      3.240934  
     315A      3.288668   316A      3.307143   317A      3.317018  
     318A      3.358518   319A      3.369752   320A      3.384521  
     321A      3.389229   322A      3.408215   323A      3.423836  
     324A      3.428597   325A      3.470063   326A      3.477959  
     327A      3.498346   328A      3.520821   329A      3.542807  
     330A      3.543693   331A      3.564244   332A      3.579849  
     333A      3.594434   334A      3.598831   335A      3.620952  
     336A      3.644307   337A      3.648983   338A      3.670262  
     339A      3.703031   340A      3.725442   341A      3.748467  
     342A      3.758718   343A      3.789333   344A      3.805735  
     345A      3.816154   346A      3.834276   347A      3.838334  
     348A      3.864467   349A      3.868982   350A      3.887000  
     351A      3.902502   352A      3.922341   353A      3.943659  
     354A      3.944935   355A      3.965793   356A      3.983131  
     357A      4.006935   358A      4.018689   359A      4.032654  
     360A      4.047523   361A      4.063454   362A      4.071307  
     363A      4.078902   364A      4.115672   365A      4.123646  
     366A      4.150677   367A      4.154176   368A      4.175640  
     369A      4.192993   370A      4.207093   371A      4.236681  
     372A      4.255831   373A      4.277096   374A      4.290565  
     375A      4.308557   376A      4.325676   377A      4.337896  
     378A      4.358358   379A      4.361386   380A      4.386914  
     381A      4.398278   382A      4.422406   383A      4.428071  
     384A      4.435905   385A      4.464094   386A      4.491956  
     387A      4.513266   388A      4.549396   389A      4.591425  
     390A      4.646990   391A      4.661397   392A      4.694747  
     393A      4.736356   394A      4.742987   395A      4.779295  
     396A      4.802532   397A      4.804208   398A      4.859636  
     399A      4.872456   400A      4.903635   401A      4.943435  
     402A      4.974789   403A      4.985268   404A      5.017262  
     405A      5.043863   406A      5.051827   407A      5.078276  
     408A      5.093418   409A      5.122291   410A      5.131393  
     411A      5.135839   412A      5.151923   413A      5.189102  
     414A      5.199771   415A      5.232213   416A      5.252888  
     417A      5.267792   418A      5.294585   419A      5.348501  
     420A      5.378442   421A      5.439238   422A      5.474060  
     423A      5.554282   424A      5.598418   425A      5.644992  
     426A      5.699312   427A      5.721482   428A      5.768369  
     429A      5.853974   430A      5.960779   431A      6.003777  
     432A      6.061426   433A      6.139830   434A      6.150061  
     435A      6.172200   436A      6.278979   437A      6.376641  
     438A      6.543212   439A      6.579450   440A      6.630861  
     441A      6.747707   442A      6.769431   443A      7.020833  
     444A      7.072533   445A     15.694861   446A     15.953570  
     447A     17.315293   448A     18.571767   449A     18.736829  
     450A     19.210290  

    Final Occupation by Irrep:
              A 
    DOCC [    38 ]

  @DF-RHF Final Energy: -2802.64479094930130

   => Energetics <=

    Nuclear Repulsion Energy =            429.5866814030840146
    One-Electron Energy =               -4747.2957406412788259
    Two-Electron Energy =                1515.0642682888935724
    Total Energy =                      -2802.6447909493008410

Computation Completed

*** tstop() called on node59.bme.utexas.edu at Sun Nov  8 20:34:49 2020
Module time:
	user time   =      94.01 seconds =       1.57 minutes
	system time =       2.94 seconds =       0.05 minutes
	total time  =         15 seconds =       0.25 minutes
Total time:
	user time   =      94.01 seconds =       1.57 minutes
	system time =       2.94 seconds =       0.05 minutes
	total time  =         15 seconds =       0.25 minutes
   => Loading Basis Set <=

    Name: (AUG-CC-PVTZ AUX)
    Role: RIFIT
    Keyword: DF_BASIS_MP2
    atoms 1    entry BR         line  1248 file /home/xy3866/psi4conda/share/psi4/basis/aug-cc-pvtz-ri.gbs 
    atoms 2-7  entry C          line   148 file /home/xy3866/psi4conda/share/psi4/basis/aug-cc-pvtz-ri.gbs 
    atoms 8-12 entry H          line    30 file /home/xy3866/psi4conda/share/psi4/basis/aug-cc-pvtz-ri.gbs 


*** tstart() called on node59.bme.utexas.edu
*** at Sun Nov  8 20:34:49 2020


  //>>>>>>>>>>>>>>>>>>>>>>>>>>>>>>>>>>>//
  //               DFMP2               //
  //<<<<<<<<<<<<<<<<<<<<<<<<<<<<<<<<<<<//

	 --------------------------------------------------------
	                          DF-MP2                         
	      2nd-Order Density-Fitted Moller-Plesset Theory     
	              RMP2 Wavefunction,   8 Threads             
	                                                         
	        Rob Parrish, Justin Turney, Andy Simmonett,      
	           Ed Hohenstein, and C. David Sherrill          
	 --------------------------------------------------------

   => Auxiliary Basis Set <=

  Basis Set: (AUG-CC-PVTZ AUX)
    Blend: AUG-CC-PVTZ-RI
    Number of shells: 281
    Number of basis function: 1057
    Number of Cartesian functions: 1352
    Spherical Harmonics?: true
    Max angular momentum: 5

	 --------------------------------------------------------
	                 NBF =   450, NAUX =  1057
	 --------------------------------------------------------
	   CLASS    FOCC     OCC    AOCC    AVIR     VIR    FVIR
	   PAIRS       0      38      38     412     412       0
	 --------------------------------------------------------

  DFHelper Memory: AOs need 1.699 GiB; user supplied 22.352 GiB. Using in-core AOs.


         ------------------------------------------------------------
                                     CPHF                           
                                  Rob Parrish                       
         ------------------------------------------------------------

  ==> Geometry <==

    Molecular point group: c1
    Full point group: C1

    Geometry (in Angstrom), charge = 0, multiplicity = 1:

       Center              X                  Y                   Z               Mass       
    ------------   -----------------  -----------------  -----------------  -----------------
         BR          -1.640761992524    -0.000000791621     0.015334060065    78.918337600000
         C            0.266630007476     0.000052208379     0.015400060065    12.000000000000
         C            0.947577007476     1.217594208379     0.015438060065    12.000000000000
         C            0.947540707476    -1.217558991621    -0.184595939935    12.000000000000
         C            2.343690007476     1.208355208379     0.015483060065    12.000000000000
         C            2.343627007476    -1.208404791621     0.015450060065    12.000000000000
         C            3.044150007476    -0.000030791621     0.015488060065    12.000000000000
         H            0.394438007476     2.152608208379     0.015435060065     1.007825032230
         H            0.394300007476    -2.152515791621     0.015373060065     1.007825032230
         H            2.882101007476     2.153085208379     0.015512060065     1.007825032230
         H            2.882018007476    -2.153148791621     0.015454060065     1.007825032230
         H            4.131172007476    -0.000050791621     0.015522060065     1.007825032230

  Nuclear repulsion =  429.586681403084015
  Reference energy  = -2802.644790949301296

  ==> Basis Set <==

  Basis Set: AUG-CC-PVTZ
    Blend: AUG-CC-PVTZ
    Number of shells: 148
    Number of basis function: 450
    Number of Cartesian functions: 524
    Spherical Harmonics?: true
    Max angular momentum: 3

  ==> CGRSolver (by Rob Parrish) <==

   Number of roots    =         1
   Preconditioning    =    JACOBI
   Convergence cutoff =     1E-06
   Maximum iterations =       100

  ==> CPHFRHamiltonian (by Rob Parrish) <== 

  ==> MemDFJK: Density-Fitted J/K Matrices <==

    J tasked:                   Yes
    K tasked:                   Yes
    wK tasked:                   No
    OpenMP threads:               8
    Memory [MiB]:             22888
    Algorithm:                 Core
    Schwarz Cutoff:           1E-12
    Mask sparsity (%):       1.5289
    Fitting Condition:        1E-10

   => Auxiliary Basis Set <=

  Basis Set: (AUG-CC-PVTZ AUX)
    Blend: AUG-CC-PVTZ-JKFIT
    Number of shells: 308
    Number of basis function: 1102
    Number of Cartesian functions: 1390
    Spherical Harmonics?: true
    Max angular momentum: 4

  ==> CPHF Iterations <==

  => Iterations <=

             Iter  Converged  Remaining    Residual
  CGR           1          0          1   9.330E-02
  CGR           2          0          1   2.626E-02
  CGR           3          0          1   7.082E-03
  CGR           4          0          1   3.600E-03
  CGR           5          0          1   1.150E-03
  CGR           6          0          1   4.125E-04
  CGR           7          0          1   2.029E-04
  CGR           8          0          1   8.852E-05
  CGR           9          0          1   2.802E-05
  CGR          10          0          1   6.943E-06
  CGR          11          0          1   1.995E-06
  CGR          12          1          0   7.696E-07

    CGRSolver converged.

	-----------------------------------------------------------
	 ==================> DF-MP2 Energies <==================== 
	-----------------------------------------------------------
	 Reference Energy          =   -2802.6447909493012958 [Eh]
	 Singles Energy            =      -0.0000000000000000 [Eh]
	 Same-Spin Energy          =      -0.3500504348180485 [Eh]
	 Opposite-Spin Energy      =      -1.0147534243455123 [Eh]
	 Correlation Energy        =      -1.3648038591635610 [Eh]
	 Total Energy              =   -2804.0095948084649535 [Eh]
	-----------------------------------------------------------
	 ================> DF-SCS-MP2 Energies <================== 
	-----------------------------------------------------------
	 SCS Same-Spin Scale       =       0.3333333333333333 [-]
	 SCS Opposite-Spin Scale   =       1.2000000000000000 [-]
	 SCS Same-Spin Energy      =      -0.1166834782726828 [Eh]
	 SCS Opposite-Spin Energy  =      -1.2177041092146148 [Eh]
	 SCS Correlation Energy    =      -1.3343875874872977 [Eh]
	 SCS Total Energy          =   -2803.9791785367883676 [Eh]
	-----------------------------------------------------------



Properties will be evaluated at   0.000000,   0.000000,   0.000000 [a0]

Properties computed using the MP2 density matrix

  Nuclear Dipole Moment: [e a0]
     X:    23.8420      Y:    -0.0000      Z:    -0.0568

  Electronic Dipole Moment: [e a0]
     X:   -23.1276      Y:     0.0281      Z:     0.0914

  Dipole Moment: [e a0]
     X:     0.7144      Y:     0.0281      Z:     0.0347     Total:     0.7158

  Dipole Moment: [D]
     X:     1.8158      Y:     0.0715      Z:     0.0881     Total:     1.8193


*** tstop() called on node59.bme.utexas.edu at Sun Nov  8 20:35:41 2020
Module time:
	user time   =     333.71 seconds =       5.56 minutes
	system time =       7.82 seconds =       0.13 minutes
	total time  =         52 seconds =       0.87 minutes
Total time:
	user time   =     428.68 seconds =       7.14 minutes
	system time =      10.84 seconds =       0.18 minutes
	total time  =         67 seconds =       1.12 minutes

    Psi4 stopped on: Sunday, 08 November 2020 08:35PM
    Psi4 wall time for execution: 0:01:07.42

*** Psi4 exiting successfully. Buy a developer a beer!
