
    -----------------------------------------------------------------------
          Psi4: An Open-Source Ab Initio Electronic Structure Package
                               Psi4 1.3.2 release

                         Git: Rev {HEAD} ecbda83 


    R. M. Parrish, L. A. Burns, D. G. A. Smith, A. C. Simmonett,
    A. E. DePrince III, E. G. Hohenstein, U. Bozkaya, A. Yu. Sokolov,
    R. Di Remigio, R. M. Richard, J. F. Gonthier, A. M. James,
    H. R. McAlexander, A. Kumar, M. Saitow, X. Wang, B. P. Pritchard,
    P. Verma, H. F. Schaefer III, K. Patkowski, R. A. King, E. F. Valeev,
    F. A. Evangelista, J. M. Turney, T. D. Crawford, and C. D. Sherrill,
    J. Chem. Theory Comput. 13(7) pp 3185--3197 (2017).
    (doi: 10.1021/acs.jctc.7b00174)


                         Additional Contributions by
    P. Kraus, H. Kruse, M. H. Lechner, M. C. Schieber, R. A. Shaw,
    A. Alenaizan, R. Galvelis, Z. L. Glick, S. Lehtola, and J. P. Misiewicz

    -----------------------------------------------------------------------


    Psi4 started on: Sunday, 08 November 2020 08:43PM

    Process ID: 108684
    Host:       node59.bme.utexas.edu
    PSIDATADIR: /home/xy3866/psi4conda/share/psi4
    Memory:     500.0 MiB
    Threads:    8
    
  ==> Input File <==

--------------------------------------------------------------------------
#psi4
#
memory 32 gb

molecule  {
0 1
 Br       -1.8067700     0.0000000    -0.0000600
  C        0.1006220     0.0000530     0.0000060
  C        0.7815690     1.2175950     0.0000440
  C        0.7815260    -1.2175610     0.0000100
  C        2.1776820     1.2083560     0.0000890
  C        2.1776190    -1.2084040     0.0000560
  C        2.8781420    -0.0000300     0.0000940
  H        0.2284300     2.1526090     0.0000410
  H        0.2283017    -2.1525107    -0.3000210
  H        2.7160930     2.1530860     0.0001180
  H        2.7160100    -2.1531480     0.0000600
  H        3.9651640    -0.0000500     0.0001280
units angstrom
no_reorient  #important for SAPT in psi4, default
symmetry c1  #important for SAPT in psi4, default
}

set PROPERTIES_ORIGIN ["COM"]
properties('MP2/aug-cc-pvtz', properties = ['dipole'])
--------------------------------------------------------------------------

  Memory set to  29.802 GiB by Python driver.
    SCF Algorithm Type (re)set to DF.

*** tstart() called on node59.bme.utexas.edu
*** at Sun Nov  8 20:43:46 2020

   => Loading Basis Set <=

    Name: AUG-CC-PVTZ
    Role: ORBITAL
    Keyword: BASIS
    atoms 1    entry BR         line  4204 file /home/xy3866/psi4conda/share/psi4/basis/aug-cc-pvtz.gbs 
    atoms 2-7  entry C          line   235 file /home/xy3866/psi4conda/share/psi4/basis/aug-cc-pvtz.gbs 
    atoms 8-12 entry H          line    36 file /home/xy3866/psi4conda/share/psi4/basis/aug-cc-pvtz.gbs 


         ---------------------------------------------------------
                                   SCF
               by Justin Turney, Rob Parrish, Andy Simmonett
                          and Daniel G. A. Smith
                              RHF Reference
                        8 Threads,  30517 MiB Core
         ---------------------------------------------------------

  ==> Geometry <==

    Molecular point group: c1
    Full point group: C1

    Geometry (in Angstrom), charge = 0, multiplicity = 1:

       Center              X                  Y                   Z               Mass       
    ------------   -----------------  -----------------  -----------------  -----------------
         BR          -1.640761539682    -0.000000603965     0.001883902226    78.918337600000
         C            0.266630460318     0.000052396035     0.001949902226    12.000000000000
         C            0.947577460318     1.217594396035     0.001987902226    12.000000000000
         C            0.947534460318    -1.217561603965     0.001953902226    12.000000000000
         C            2.343690460318     1.208355396035     0.002032902226    12.000000000000
         C            2.343627460318    -1.208404603965     0.001999902226    12.000000000000
         C            3.044150460318    -0.000030603965     0.002037902226    12.000000000000
         H            0.394438460318     2.152608396035     0.001984902226     1.007825032230
         H            0.394310160318    -2.152511303965    -0.298077097774     1.007825032230
         H            2.882101460318     2.153085396035     0.002061902226     1.007825032230
         H            2.882018460318    -2.153148603965     0.002003902226     1.007825032230
         H            4.131172460318    -0.000050603965     0.002071902226     1.007825032230

  Running in c1 symmetry.

  Rotational constants: A =      0.18857  B =      0.03291  C =      0.02803 [cm^-1]
  Rotational constants: A =   5653.11589  B =    986.63061  C =    840.26100 [MHz]
  Nuclear repulsion =  429.909440028328390

  Charge       = 0
  Multiplicity = 1
  Electrons    = 76
  Nalpha       = 38
  Nbeta        = 38

  ==> Algorithm <==

  SCF Algorithm Type is DF.
  DIIS enabled.
  MOM disabled.
  Fractional occupation disabled.
  Guess Type is SAD.
  Energy threshold   = 1.00e-10
  Density threshold  = 1.00e-10
  Integral threshold = 0.00e+00

  ==> Primary Basis <==

  Basis Set: AUG-CC-PVTZ
    Blend: AUG-CC-PVTZ
    Number of shells: 148
    Number of basis function: 450
    Number of Cartesian functions: 524
    Spherical Harmonics?: true
    Max angular momentum: 3

   => Loading Basis Set <=

    Name: (AUG-CC-PVTZ AUX)
    Role: JKFIT
    Keyword: DF_BASIS_SCF
    atoms 1    entry BR         line  1492 file /home/xy3866/psi4conda/share/psi4/basis/aug-cc-pvtz-jkfit.gbs 
    atoms 2-7  entry C          line   162 file /home/xy3866/psi4conda/share/psi4/basis/aug-cc-pvtz-jkfit.gbs 
    atoms 8-12 entry H          line    70 file /home/xy3866/psi4conda/share/psi4/basis/aug-cc-pvtz-jkfit.gbs 

  ==> Pre-Iterations <==

   -------------------------------------------------------
    Irrep   Nso     Nmo     Nalpha   Nbeta   Ndocc  Nsocc
   -------------------------------------------------------
     A        450     450       0       0       0       0
   -------------------------------------------------------
    Total     450     450      38      38      38       0
   -------------------------------------------------------

  ==> Integral Setup <==

  DFHelper Memory: AOs need 1.699 GiB; user supplied 22.352 GiB. Using in-core AOs.

  ==> MemDFJK: Density-Fitted J/K Matrices <==

    J tasked:                   Yes
    K tasked:                   Yes
    wK tasked:                   No
    OpenMP threads:               8
    Memory [MiB]:             22888
    Algorithm:                 Core
    Schwarz Cutoff:           1E-12
    Mask sparsity (%):       1.5299
    Fitting Condition:        1E-10

   => Auxiliary Basis Set <=

  Basis Set: (AUG-CC-PVTZ AUX)
    Blend: AUG-CC-PVTZ-JKFIT
    Number of shells: 308
    Number of basis function: 1102
    Number of Cartesian functions: 1390
    Spherical Harmonics?: true
    Max angular momentum: 4

  Minimum eigenvalue in the overlap matrix is 1.2151862748E-06.
  Using Symmetric Orthogonalization.

  SCF Guess: Superposition of Atomic Densities via on-the-fly atomic UHF.

  ==> Iterations <==

                           Total Energy        Delta E     RMS |[F,P]|

   @DF-RHF iter SAD: -2800.53030664515200   -2.80053e+03   0.00000e+00 
   @DF-RHF iter   1: -2802.34250812217124   -1.81220e+00   2.38323e-03 DIIS
   @DF-RHF iter   2: -2802.59197887215760   -2.49471e-01   1.08707e-03 DIIS
   @DF-RHF iter   3: -2802.64852685746791   -5.65480e-02   1.10602e-04 DIIS
   @DF-RHF iter   4: -2802.65027994941101   -1.75309e-03   6.96864e-05 DIIS
   @DF-RHF iter   5: -2802.65083449188523   -5.54542e-04   1.03646e-05 DIIS
   @DF-RHF iter   6: -2802.65086231311079   -2.78212e-05   5.53218e-06 DIIS
   @DF-RHF iter   7: -2802.65086890150315   -6.58839e-06   2.04050e-06 DIIS
   @DF-RHF iter   8: -2802.65087096095476   -2.05945e-06   7.63120e-07 DIIS
   @DF-RHF iter   9: -2802.65087131330893   -3.52354e-07   2.99452e-07 DIIS
   @DF-RHF iter  10: -2802.65087135998010   -4.66712e-08   1.46250e-07 DIIS
   @DF-RHF iter  11: -2802.65087137049704   -1.05169e-08   3.96251e-08 DIIS
   @DF-RHF iter  12: -2802.65087137121009   -7.13044e-10   6.90301e-09 DIIS
   @DF-RHF iter  13: -2802.65087137121964   -9.54969e-12   2.47989e-09 DIIS
   @DF-RHF iter  14: -2802.65087137122418   -4.54747e-12   9.41896e-10 DIIS
   @DF-RHF iter  15: -2802.65087137122418    0.00000e+00   3.18064e-10 DIIS
   @DF-RHF iter  16: -2802.65087137122146    2.72848e-12   1.09620e-10 DIIS
   @DF-RHF iter  17: -2802.65087137121918    2.27374e-12   3.14195e-11 DIIS
  Energy and wave function converged.


  ==> Post-Iterations <==

    Orbital Energies [Eh]
    ---------------------

    Doubly Occupied:                                                      

       1A   -490.024742     2A    -65.164485     3A    -58.519794  
       4A    -58.518414     5A    -58.518387     6A    -11.304219  
       7A    -11.258727     8A    -11.255857     9A    -11.254179  
      10A    -11.253983    11A    -11.250535    12A     -9.837220  
      13A     -7.448796    14A     -7.442047    15A     -7.441987  
      16A     -3.192549    17A     -3.189044    18A     -3.188827  
      19A     -3.180197    20A     -3.180189    21A     -1.174700  
      22A     -1.070003    23A     -1.032099    24A     -0.974003  
      25A     -0.843977    26A     -0.817165    27A     -0.706735  
      28A     -0.644897    29A     -0.641670    30A     -0.601894  
      31A     -0.573421    32A     -0.534811    33A     -0.511314  
      34A     -0.490710    35A     -0.438689    36A     -0.416364  
      37A     -0.352918    38A     -0.335437  

    Virtual:                                                              

      39A      0.026940    40A      0.033096    41A      0.038153  
      42A      0.050118    43A      0.051925    44A      0.069146  
      45A      0.078361    46A      0.090077    47A      0.093714  
      48A      0.096014    49A      0.102952    50A      0.106786  
      51A      0.114107    52A      0.116574    53A      0.117070  
      54A      0.122466    55A      0.132432    56A      0.138013  
      57A      0.138117    58A      0.143466    59A      0.145349  
      60A      0.149962    61A      0.152557    62A      0.155531  
      63A      0.160221    64A      0.165061    65A      0.171134  
      66A      0.190916    67A      0.192161    68A      0.229667  
      69A      0.232251    70A      0.239210    71A      0.246974  
      72A      0.249538    73A      0.257152    74A      0.265755  
      75A      0.273683    76A      0.283996    77A      0.291842  
      78A      0.295427    79A      0.301972    80A      0.308718  
      81A      0.310683    82A      0.318116    83A      0.321595  
      84A      0.324164    85A      0.327300    86A      0.335027  
      87A      0.343055    88A      0.357248    89A      0.368940  
      90A      0.373527    91A      0.374612    92A      0.389809  
      93A      0.401722    94A      0.416503    95A      0.418222  
      96A      0.421071    97A      0.428929    98A      0.432672  
      99A      0.436407   100A      0.437861   101A      0.444071  
     102A      0.454808   103A      0.462341   104A      0.466718  
     105A      0.472452   106A      0.477236   107A      0.480316  
     108A      0.483927   109A      0.490212   110A      0.504936  
     111A      0.508049   112A      0.511528   113A      0.518390  
     114A      0.523437   115A      0.530755   116A      0.537896  
     117A      0.541391   118A      0.548335   119A      0.551771  
     120A      0.564245   121A      0.580178   122A      0.602928  
     123A      0.603898   124A      0.614223   125A      0.618456  
     126A      0.631408   127A      0.637073   128A      0.643218  
     129A      0.657713   130A      0.665019   131A      0.668249  
     132A      0.692136   133A      0.702274   134A      0.702947  
     135A      0.712327   136A      0.727281   137A      0.745929  
     138A      0.754546   139A      0.761151   140A      0.768451  
     141A      0.782703   142A      0.794802   143A      0.809739  
     144A      0.815798   145A      0.821440   146A      0.840011  
     147A      0.851942   148A      0.855468   149A      0.857547  
     150A      0.862326   151A      0.865328   152A      0.872770  
     153A      0.879001   154A      0.881284   155A      0.885920  
     156A      0.892402   157A      0.902099   158A      0.914148  
     159A      0.922495   160A      0.928778   161A      0.934543  
     162A      0.944892   163A      0.954751   164A      0.966936  
     165A      0.976397   166A      0.979806   167A      0.988062  
     168A      0.996345   169A      1.018012   170A      1.028729  
     171A      1.036529   172A      1.037502   173A      1.047113  
     174A      1.055695   175A      1.061160   176A      1.063352  
     177A      1.071744   178A      1.079943   179A      1.083095  
     180A      1.086051   181A      1.090801   182A      1.100884  
     183A      1.109614   184A      1.114197   185A      1.123134  
     186A      1.126946   187A      1.142819   188A      1.155718  
     189A      1.163033   190A      1.172626   191A      1.186162  
     192A      1.189030   193A      1.198326   194A      1.203718  
     195A      1.212904   196A      1.222758   197A      1.225518  
     198A      1.241654   199A      1.252439   200A      1.260637  
     201A      1.264671   202A      1.277459   203A      1.294914  
     204A      1.305356   205A      1.315286   206A      1.327387  
     207A      1.338959   208A      1.367057   209A      1.376768  
     210A      1.380564   211A      1.390518   212A      1.401632  
     213A      1.408477   214A      1.410565   215A      1.437489  
     216A      1.443777   217A      1.473925   218A      1.480305  
     219A      1.493098   220A      1.504258   221A      1.521392  
     222A      1.525362   223A      1.566178   224A      1.571004  
     225A      1.615237   226A      1.641371   227A      1.656796  
     228A      1.676908   229A      1.682361   230A      1.693491  
     231A      1.714715   232A      1.730595   233A      1.737402  
     234A      1.751632   235A      1.773523   236A      1.783957  
     237A      1.799186   238A      1.806184   239A      1.820878  
     240A      1.824045   241A      1.842969   242A      1.855514  
     243A      1.858915   244A      1.881744   245A      1.886477  
     246A      1.901643   247A      1.918417   248A      1.935577  
     249A      1.943552   250A      1.949821   251A      1.974645  
     252A      1.979527   253A      1.991610   254A      2.002015  
     255A      2.018147   256A      2.026750   257A      2.044295  
     258A      2.047052   259A      2.059250   260A      2.065634  
     261A      2.072420   262A      2.096627   263A      2.105721  
     264A      2.127260   265A      2.152241   266A      2.171250  
     267A      2.216213   268A      2.222986   269A      2.247238  
     270A      2.257256   271A      2.274120   272A      2.280589  
     273A      2.310833   274A      2.329436   275A      2.339255  
     276A      2.354239   277A      2.362045   278A      2.368297  
     279A      2.371546   280A      2.381878   281A      2.385368  
     282A      2.422229   283A      2.431944   284A      2.460332  
     285A      2.464291   286A      2.491068   287A      2.504789  
     288A      2.516129   289A      2.527749   290A      2.548611  
     291A      2.554409   292A      2.562429   293A      2.620652  
     294A      2.641873   295A      2.683377   296A      2.701921  
     297A      2.718651   298A      2.732704   299A      2.746909  
     300A      2.765047   301A      2.786098   302A      2.817952  
     303A      2.884927   304A      2.936142   305A      2.957946  
     306A      2.998371   307A      3.079271   308A      3.125488  
     309A      3.139853   310A      3.150141   311A      3.196642  
     312A      3.203396   313A      3.231274   314A      3.240107  
     315A      3.296889   316A      3.305943   317A      3.320063  
     318A      3.327947   319A      3.369765   320A      3.381251  
     321A      3.393618   322A      3.403326   323A      3.407191  
     324A      3.414054   325A      3.439394   326A      3.467630  
     327A      3.515723   328A      3.525935   329A      3.529503  
     330A      3.546681   331A      3.553123   332A      3.561048  
     333A      3.574307   334A      3.585036   335A      3.629403  
     336A      3.632636   337A      3.654488   338A      3.663275  
     339A      3.680892   340A      3.732883   341A      3.748627  
     342A      3.770832   343A      3.807885   344A      3.809278  
     345A      3.812879   346A      3.829133   347A      3.836159  
     348A      3.851327   349A      3.869668   350A      3.878161  
     351A      3.896946   352A      3.906979   353A      3.945809  
     354A      3.952467   355A      3.977277   356A      3.989761  
     357A      3.995907   358A      4.021698   359A      4.042740  
     360A      4.047545   361A      4.069500   362A      4.092010  
     363A      4.101432   364A      4.113060   365A      4.120231  
     366A      4.130199   367A      4.169904   368A      4.173873  
     369A      4.204473   370A      4.225061   371A      4.240920  
     372A      4.268624   373A      4.286421   374A      4.302606  
     375A      4.323427   376A      4.344163   377A      4.346992  
     378A      4.357639   379A      4.371735   380A      4.383553  
     381A      4.402703   382A      4.423235   383A      4.432912  
     384A      4.450491   385A      4.461000   386A      4.501611  
     387A      4.534352   388A      4.560804   389A      4.630608  
     390A      4.658274   391A      4.691174   392A      4.711298  
     393A      4.721495   394A      4.748651   395A      4.761246  
     396A      4.780235   397A      4.835508   398A      4.860474  
     399A      4.882527   400A      4.903225   401A      4.949385  
     402A      4.967412   403A      4.993916   404A      5.037220  
     405A      5.052227   406A      5.089863   407A      5.098083  
     408A      5.104805   409A      5.116008   410A      5.129458  
     411A      5.133695   412A      5.146425   413A      5.201403  
     414A      5.218392   415A      5.236700   416A      5.253142  
     417A      5.273750   418A      5.291762   419A      5.321734  
     420A      5.364994   421A      5.432864   422A      5.457974  
     423A      5.519052   424A      5.608587   425A      5.638254  
     426A      5.710220   427A      5.732482   428A      5.762077  
     429A      5.852136   430A      5.997637   431A      6.022786  
     432A      6.046175   433A      6.151708   434A      6.175015  
     435A      6.199978   436A      6.289326   437A      6.397187  
     438A      6.545655   439A      6.633928   440A      6.695467  
     441A      6.791771   442A      6.927135   443A      7.074330  
     444A      7.197988   445A     15.717331   446A     15.826826  
     447A     17.002550   448A     18.715771   449A     19.001559  
     450A     19.396003  

    Final Occupation by Irrep:
              A 
    DOCC [    38 ]

  @DF-RHF Final Energy: -2802.65087137121918

   => Energetics <=

    Nuclear Repulsion Energy =            429.9094400283283903
    One-Electron Energy =               -4747.9506564407656697
    Two-Electron Energy =                1515.3903450412183247
    Total Energy =                      -2802.6508713712191820

Computation Completed

*** tstop() called on node59.bme.utexas.edu at Sun Nov  8 20:44:01 2020
Module time:
	user time   =      96.17 seconds =       1.60 minutes
	system time =       3.23 seconds =       0.05 minutes
	total time  =         15 seconds =       0.25 minutes
Total time:
	user time   =      96.17 seconds =       1.60 minutes
	system time =       3.23 seconds =       0.05 minutes
	total time  =         15 seconds =       0.25 minutes
   => Loading Basis Set <=

    Name: (AUG-CC-PVTZ AUX)
    Role: RIFIT
    Keyword: DF_BASIS_MP2
    atoms 1    entry BR         line  1248 file /home/xy3866/psi4conda/share/psi4/basis/aug-cc-pvtz-ri.gbs 
    atoms 2-7  entry C          line   148 file /home/xy3866/psi4conda/share/psi4/basis/aug-cc-pvtz-ri.gbs 
    atoms 8-12 entry H          line    30 file /home/xy3866/psi4conda/share/psi4/basis/aug-cc-pvtz-ri.gbs 


*** tstart() called on node59.bme.utexas.edu
*** at Sun Nov  8 20:44:01 2020


  //>>>>>>>>>>>>>>>>>>>>>>>>>>>>>>>>>>>//
  //               DFMP2               //
  //<<<<<<<<<<<<<<<<<<<<<<<<<<<<<<<<<<<//

	 --------------------------------------------------------
	                          DF-MP2                         
	      2nd-Order Density-Fitted Moller-Plesset Theory     
	              RMP2 Wavefunction,   8 Threads             
	                                                         
	        Rob Parrish, Justin Turney, Andy Simmonett,      
	           Ed Hohenstein, and C. David Sherrill          
	 --------------------------------------------------------

   => Auxiliary Basis Set <=

  Basis Set: (AUG-CC-PVTZ AUX)
    Blend: AUG-CC-PVTZ-RI
    Number of shells: 281
    Number of basis function: 1057
    Number of Cartesian functions: 1352
    Spherical Harmonics?: true
    Max angular momentum: 5

	 --------------------------------------------------------
	                 NBF =   450, NAUX =  1057
	 --------------------------------------------------------
	   CLASS    FOCC     OCC    AOCC    AVIR     VIR    FVIR
	   PAIRS       0      38      38     412     412       0
	 --------------------------------------------------------

  DFHelper Memory: AOs need 1.699 GiB; user supplied 22.352 GiB. Using in-core AOs.


         ------------------------------------------------------------
                                     CPHF                           
                                  Rob Parrish                       
         ------------------------------------------------------------

  ==> Geometry <==

    Molecular point group: c1
    Full point group: C1

    Geometry (in Angstrom), charge = 0, multiplicity = 1:

       Center              X                  Y                   Z               Mass       
    ------------   -----------------  -----------------  -----------------  -----------------
         BR          -1.640761539682    -0.000000603965     0.001883902226    78.918337600000
         C            0.266630460318     0.000052396035     0.001949902226    12.000000000000
         C            0.947577460318     1.217594396035     0.001987902226    12.000000000000
         C            0.947534460318    -1.217561603965     0.001953902226    12.000000000000
         C            2.343690460318     1.208355396035     0.002032902226    12.000000000000
         C            2.343627460318    -1.208404603965     0.001999902226    12.000000000000
         C            3.044150460318    -0.000030603965     0.002037902226    12.000000000000
         H            0.394438460318     2.152608396035     0.001984902226     1.007825032230
         H            0.394310160318    -2.152511303965    -0.298077097774     1.007825032230
         H            2.882101460318     2.153085396035     0.002061902226     1.007825032230
         H            2.882018460318    -2.153148603965     0.002003902226     1.007825032230
         H            4.131172460318    -0.000050603965     0.002071902226     1.007825032230

  Nuclear repulsion =  429.909440028328390
  Reference energy  = -2802.650871371219182

  ==> Basis Set <==

  Basis Set: AUG-CC-PVTZ
    Blend: AUG-CC-PVTZ
    Number of shells: 148
    Number of basis function: 450
    Number of Cartesian functions: 524
    Spherical Harmonics?: true
    Max angular momentum: 3

  ==> CGRSolver (by Rob Parrish) <==

   Number of roots    =         1
   Preconditioning    =    JACOBI
   Convergence cutoff =     1E-06
   Maximum iterations =       100

  ==> CPHFRHamiltonian (by Rob Parrish) <== 

  ==> MemDFJK: Density-Fitted J/K Matrices <==

    J tasked:                   Yes
    K tasked:                   Yes
    wK tasked:                   No
    OpenMP threads:               8
    Memory [MiB]:             22888
    Algorithm:                 Core
    Schwarz Cutoff:           1E-12
    Mask sparsity (%):       1.5299
    Fitting Condition:        1E-10

   => Auxiliary Basis Set <=

  Basis Set: (AUG-CC-PVTZ AUX)
    Blend: AUG-CC-PVTZ-JKFIT
    Number of shells: 308
    Number of basis function: 1102
    Number of Cartesian functions: 1390
    Spherical Harmonics?: true
    Max angular momentum: 4

  ==> CPHF Iterations <==

  => Iterations <=

             Iter  Converged  Remaining    Residual
  CGR           1          0          1   9.294E-02
  CGR           2          0          1   2.605E-02
  CGR           3          0          1   6.865E-03
  CGR           4          0          1   3.302E-03
  CGR           5          0          1   9.433E-04
  CGR           6          0          1   2.770E-04
  CGR           7          0          1   1.079E-04
  CGR           8          0          1   5.961E-05
  CGR           9          0          1   2.419E-05
  CGR          10          0          1   6.431E-06
  CGR          11          0          1   1.649E-06
  CGR          12          1          0   3.616E-07

    CGRSolver converged.

	-----------------------------------------------------------
	 ==================> DF-MP2 Energies <==================== 
	-----------------------------------------------------------
	 Reference Energy          =   -2802.6508713712191820 [Eh]
	 Singles Energy            =      -0.0000000000000000 [Eh]
	 Same-Spin Energy          =      -0.3497907151223172 [Eh]
	 Opposite-Spin Energy      =      -1.0136429216551337 [Eh]
	 Correlation Energy        =      -1.3634336367774509 [Eh]
	 Total Energy              =   -2804.0143050079964269 [Eh]
	-----------------------------------------------------------
	 ================> DF-SCS-MP2 Energies <================== 
	-----------------------------------------------------------
	 SCS Same-Spin Scale       =       0.3333333333333333 [-]
	 SCS Opposite-Spin Scale   =       1.2000000000000000 [-]
	 SCS Same-Spin Energy      =      -0.1165969050407724 [Eh]
	 SCS Opposite-Spin Energy  =      -1.2163715059861604 [Eh]
	 SCS Correlation Energy    =      -1.3329684110269329 [Eh]
	 SCS Total Energy          =   -2803.9838397822459228 [Eh]
	-----------------------------------------------------------



Properties will be evaluated at   0.000000,   0.000000,   0.000000 [a0]

Properties computed using the MP2 density matrix

  Nuclear Dipole Moment: [e a0]
     X:    23.8420      Y:    -0.0000      Z:    -0.2877

  Electronic Dipole Moment: [e a0]
     X:   -23.1318      Y:     0.0212      Z:     0.2171

  Dipole Moment: [e a0]
     X:     0.7102      Y:     0.0211      Z:    -0.0706     Total:     0.7140

  Dipole Moment: [D]
     X:     1.8051      Y:     0.0538      Z:    -0.1795     Total:     1.8148


*** tstop() called on node59.bme.utexas.edu at Sun Nov  8 20:44:53 2020
Module time:
	user time   =     336.73 seconds =       5.61 minutes
	system time =       7.87 seconds =       0.13 minutes
	total time  =         52 seconds =       0.87 minutes
Total time:
	user time   =     433.90 seconds =       7.23 minutes
	system time =      11.19 seconds =       0.19 minutes
	total time  =         67 seconds =       1.12 minutes

    Psi4 stopped on: Sunday, 08 November 2020 08:44PM
    Psi4 wall time for execution: 0:01:07.87

*** Psi4 exiting successfully. Buy a developer a beer!
