638122                                                                  
Freq      RMP2-FC                                                     6-31G(d)            
Number of atoms                            I               15
Info1-9                                    I   N=           9
          27          25        1002           0           0         100
           6           2           1
Charge                                     I                0
Multiplicity                               I                1
Number of electrons                        I               54
Number of alpha electrons                  I               27
Number of beta electrons                   I               27
Number of basis functions                  I              121
Number of independent functions            I              121
Number of point charges in /Mol/           I                0
Number of translation vectors              I                0
Atomic numbers                             I   N=          15
           8           8           6           6           6           6
           6           1           1           1           1           1
           1           1           1
Nuclear charges                            R   N=          15
  8.00000000E+00  8.00000000E+00  6.00000000E+00  6.00000000E+00  6.00000000E+00
  6.00000000E+00  6.00000000E+00  1.00000000E+00  1.00000000E+00  1.00000000E+00
  1.00000000E+00  1.00000000E+00  1.00000000E+00  1.00000000E+00  1.00000000E+00
Current cartesian coordinates              R   N=          45
 -4.36703459E+00 -2.15494437E+00 -8.55296831E-05 -3.99036196E+00  2.11186558E+00
 -1.44435399E-04  4.22159296E+00  1.16888209E+00  9.58253812E-05  5.24152304E+00
 -1.52493030E+00  1.73211245E-04  1.40112616E+00  1.40293077E+00  1.24739276E-05
 -2.60694878E-01 -5.12718787E-01  2.66289912E-06 -2.99773665E+00  2.75767889E-02
 -8.45460681E-05  4.95262467E+00  2.19988056E+00  1.64697579E+00  4.95271714E+00
  2.19982102E+00 -1.64678033E+00  7.30711516E+00 -1.51403790E+00  2.30536229E-04
  4.61125798E+00 -2.56055951E+00 -1.67299638E+00  4.61116483E+00 -2.56049869E+00
  1.67334536E+00  6.27042499E-01  3.31238221E+00 -4.46828887E-05  3.00977144E-01
 -2.48364818E+00  5.53059597E-05 -6.13859079E+00 -1.61915252E+00 -1.43642582E-04
Force Field                                I                0
Int Atom Types                             I   N=          15
           0           0           0           0           0           0
           0           0           0           0           0           0
           0           0           0
MM charges                                 R   N=          15
  0.00000000E+00  0.00000000E+00  0.00000000E+00  0.00000000E+00  0.00000000E+00
  0.00000000E+00  0.00000000E+00  0.00000000E+00  0.00000000E+00  0.00000000E+00
  0.00000000E+00  0.00000000E+00  0.00000000E+00  0.00000000E+00  0.00000000E+00
Integer atomic weights                     I   N=          15
          16          16          12          12          12          12
          12           1           1           1           1           1
           1           1           1
Real atomic weights                        R   N=          15
  1.59949146E+01  1.59949146E+01  1.20000000E+01  1.20000000E+01  1.20000000E+01
  1.20000000E+01  1.20000000E+01  1.00782504E+00  1.00782504E+00  1.00782504E+00
  1.00782504E+00  1.00782504E+00  1.00782504E+00  1.00782504E+00  1.00782504E+00
Atom fragment info                         I   N=          15
           0           0           0           0           0           0
           0           0           0           0           0           0
           0           0           0
Atom residue num                           I   N=          15
           0           0           0           0           0           0
           0           0           0           0           0           0
           0           0           0
Nuclear spins                              I   N=          15
           0           0           0           0           0           0
           0           1           1           1           1           1
           1           1           1
Nuclear ZEff                               R   N=          15
 -5.60000000E+00 -5.60000000E+00 -3.60000000E+00 -3.60000000E+00 -3.60000000E+00
 -3.60000000E+00 -3.60000000E+00 -1.00000000E+00 -1.00000000E+00 -1.00000000E+00
 -1.00000000E+00 -1.00000000E+00 -1.00000000E+00 -1.00000000E+00 -1.00000000E+00
Nuclear QMom                               R   N=          15
  0.00000000E+00  0.00000000E+00  0.00000000E+00  0.00000000E+00  0.00000000E+00
  0.00000000E+00  0.00000000E+00  0.00000000E+00  0.00000000E+00  0.00000000E+00
  0.00000000E+00  0.00000000E+00  0.00000000E+00  0.00000000E+00  0.00000000E+00
Nuclear GFac                               R   N=          15
  0.00000000E+00  0.00000000E+00  0.00000000E+00  0.00000000E+00  0.00000000E+00
  0.00000000E+00  0.00000000E+00  2.79284600E+00  2.79284600E+00  2.79284600E+00
  2.79284600E+00  2.79284600E+00  2.79284600E+00  2.79284600E+00  2.79284600E+00
MicOpt                                     I   N=          15
          -1          -1          -1          -1          -1          -1
          -1          -1          -1          -1          -1          -1
          -1          -1          -1
Number of contracted shells                I               44
Number of primitive shells                 I              109
Pure/Cartesian d shells                    I                1
Pure/Cartesian f shells                    I                0
Highest angular momentum                   I                2
Largest degree of contraction              I                6
Shell types                                I   N=          44
           0          -1          -1           2           0          -1
          -1           2           0          -1          -1           2
           0          -1          -1           2           0          -1
          -1           2           0          -1          -1           2
           0          -1          -1           2           0           0
           0           0           0           0           0           0
           0           0           0           0           0           0
           0           0
Number of primitives per shell             I   N=          44
           6           3           1           1           6           3
           1           1           6           3           1           1
           6           3           1           1           6           3
           1           1           6           3           1           1
           6           3           1           1           3           1
           3           1           3           1           3           1
           3           1           3           1           3           1
           3           1
Shell to atom map                          I   N=          44
           1           1           1           1           2           2
           2           2           3           3           3           3
           4           4           4           4           5           5
           5           5           6           6           6           6
           7           7           7           7           8           8
           9           9          10          10          11          11
          12          12          13          13          14          14
          15          15
Primitive exponents                        R   N=         109
  5.48467166E+03  8.25234946E+02  1.88046958E+02  5.29645000E+01  1.68975704E+01
  5.79963534E+00  1.55396162E+01  3.59993359E+00  1.01376175E+00  2.70005823E-01
  8.00000000E-01  5.48467166E+03  8.25234946E+02  1.88046958E+02  5.29645000E+01
  1.68975704E+01  5.79963534E+00  1.55396162E+01  3.59993359E+00  1.01376175E+00
  2.70005823E-01  8.00000000E-01  3.04752488E+03  4.57369518E+02  1.03948685E+02
  2.92101553E+01  9.28666296E+00  3.16392696E+00  7.86827235E+00  1.88128854E+00
  5.44249258E-01  1.68714478E-01  8.00000000E-01  3.04752488E+03  4.57369518E+02
  1.03948685E+02  2.92101553E+01  9.28666296E+00  3.16392696E+00  7.86827235E+00
  1.88128854E+00  5.44249258E-01  1.68714478E-01  8.00000000E-01  3.04752488E+03
  4.57369518E+02  1.03948685E+02  2.92101553E+01  9.28666296E+00  3.16392696E+00
  7.86827235E+00  1.88128854E+00  5.44249258E-01  1.68714478E-01  8.00000000E-01
  3.04752488E+03  4.57369518E+02  1.03948685E+02  2.92101553E+01  9.28666296E+00
  3.16392696E+00  7.86827235E+00  1.88128854E+00  5.44249258E-01  1.68714478E-01
  8.00000000E-01  3.04752488E+03  4.57369518E+02  1.03948685E+02  2.92101553E+01
  9.28666296E+00  3.16392696E+00  7.86827235E+00  1.88128854E+00  5.44249258E-01
  1.68714478E-01  8.00000000E-01  1.87311370E+01  2.82539436E+00  6.40121692E-01
  1.61277759E-01  1.87311370E+01  2.82539436E+00  6.40121692E-01  1.61277759E-01
  1.87311370E+01  2.82539436E+00  6.40121692E-01  1.61277759E-01  1.87311370E+01
  2.82539436E+00  6.40121692E-01  1.61277759E-01  1.87311370E+01  2.82539436E+00
  6.40121692E-01  1.61277759E-01  1.87311370E+01  2.82539436E+00  6.40121692E-01
  1.61277759E-01  1.87311370E+01  2.82539436E+00  6.40121692E-01  1.61277759E-01
  1.87311370E+01  2.82539436E+00  6.40121692E-01  1.61277759E-01
Contraction coefficients                   R   N=         109
  1.83107443E-03  1.39501722E-02  6.84450781E-02  2.32714336E-01  4.70192898E-01
  3.58520853E-01 -1.10777550E-01 -1.48026263E-01  1.13076702E+00  1.00000000E+00
  1.00000000E+00  1.83107443E-03  1.39501722E-02  6.84450781E-02  2.32714336E-01
  4.70192898E-01  3.58520853E-01 -1.10777550E-01 -1.48026263E-01  1.13076702E+00
  1.00000000E+00  1.00000000E+00  1.83473713E-03  1.40373228E-02  6.88426223E-02
  2.32184443E-01  4.67941348E-01  3.62311985E-01 -1.19332420E-01 -1.60854152E-01
  1.14345644E+00  1.00000000E+00  1.00000000E+00  1.83473713E-03  1.40373228E-02
  6.88426223E-02  2.32184443E-01  4.67941348E-01  3.62311985E-01 -1.19332420E-01
 -1.60854152E-01  1.14345644E+00  1.00000000E+00  1.00000000E+00  1.83473713E-03
  1.40373228E-02  6.88426223E-02  2.32184443E-01  4.67941348E-01  3.62311985E-01
 -1.19332420E-01 -1.60854152E-01  1.14345644E+00  1.00000000E+00  1.00000000E+00
  1.83473713E-03  1.40373228E-02  6.88426223E-02  2.32184443E-01  4.67941348E-01
  3.62311985E-01 -1.19332420E-01 -1.60854152E-01  1.14345644E+00  1.00000000E+00
  1.00000000E+00  1.83473713E-03  1.40373228E-02  6.88426223E-02  2.32184443E-01
  4.67941348E-01  3.62311985E-01 -1.19332420E-01 -1.60854152E-01  1.14345644E+00
  1.00000000E+00  1.00000000E+00  3.34946043E-02  2.34726953E-01  8.13757326E-01
  1.00000000E+00  3.34946043E-02  2.34726953E-01  8.13757326E-01  1.00000000E+00
  3.34946043E-02  2.34726953E-01  8.13757326E-01  1.00000000E+00  3.34946043E-02
  2.34726953E-01  8.13757326E-01  1.00000000E+00  3.34946043E-02  2.34726953E-01
  8.13757326E-01  1.00000000E+00  3.34946043E-02  2.34726953E-01  8.13757326E-01
  1.00000000E+00  3.34946043E-02  2.34726953E-01  8.13757326E-01  1.00000000E+00
  3.34946043E-02  2.34726953E-01  8.13757326E-01  1.00000000E+00
P(S=P) Contraction coefficients            R   N=         109
  0.00000000E+00  0.00000000E+00  0.00000000E+00  0.00000000E+00  0.00000000E+00
  0.00000000E+00  7.08742682E-02  3.39752839E-01  7.27158577E-01  1.00000000E+00
  0.00000000E+00  0.00000000E+00  0.00000000E+00  0.00000000E+00  0.00000000E+00
  0.00000000E+00  0.00000000E+00  7.08742682E-02  3.39752839E-01  7.27158577E-01
  1.00000000E+00  0.00000000E+00  0.00000000E+00  0.00000000E+00  0.00000000E+00
  0.00000000E+00  0.00000000E+00  0.00000000E+00  6.89990666E-02  3.16423961E-01
  7.44308291E-01  1.00000000E+00  0.00000000E+00  0.00000000E+00  0.00000000E+00
  0.00000000E+00  0.00000000E+00  0.00000000E+00  0.00000000E+00  6.89990666E-02
  3.16423961E-01  7.44308291E-01  1.00000000E+00  0.00000000E+00  0.00000000E+00
  0.00000000E+00  0.00000000E+00  0.00000000E+00  0.00000000E+00  0.00000000E+00
  6.89990666E-02  3.16423961E-01  7.44308291E-01  1.00000000E+00  0.00000000E+00
  0.00000000E+00  0.00000000E+00  0.00000000E+00  0.00000000E+00  0.00000000E+00
  0.00000000E+00  6.89990666E-02  3.16423961E-01  7.44308291E-01  1.00000000E+00
  0.00000000E+00  0.00000000E+00  0.00000000E+00  0.00000000E+00  0.00000000E+00
  0.00000000E+00  0.00000000E+00  6.89990666E-02  3.16423961E-01  7.44308291E-01
  1.00000000E+00  0.00000000E+00  0.00000000E+00  0.00000000E+00  0.00000000E+00
  0.00000000E+00  0.00000000E+00  0.00000000E+00  0.00000000E+00  0.00000000E+00
  0.00000000E+00  0.00000000E+00  0.00000000E+00  0.00000000E+00  0.00000000E+00
  0.00000000E+00  0.00000000E+00  0.00000000E+00  0.00000000E+00  0.00000000E+00
  0.00000000E+00  0.00000000E+00  0.00000000E+00  0.00000000E+00  0.00000000E+00
  0.00000000E+00  0.00000000E+00  0.00000000E+00  0.00000000E+00  0.00000000E+00
  0.00000000E+00  0.00000000E+00  0.00000000E+00  0.00000000E+00
Coordinates of each shell                  R   N=         132
 -4.36703459E+00 -2.15494437E+00 -8.55296831E-05 -4.36703459E+00 -2.15494437E+00
 -8.55296831E-05 -4.36703459E+00 -2.15494437E+00 -8.55296831E-05 -4.36703459E+00
 -2.15494437E+00 -8.55296831E-05 -3.99036196E+00  2.11186558E+00 -1.44435399E-04
 -3.99036196E+00  2.11186558E+00 -1.44435399E-04 -3.99036196E+00  2.11186558E+00
 -1.44435399E-04 -3.99036196E+00  2.11186558E+00 -1.44435399E-04  4.22159296E+00
  1.16888209E+00  9.58253812E-05  4.22159296E+00  1.16888209E+00  9.58253812E-05
  4.22159296E+00  1.16888209E+00  9.58253812E-05  4.22159296E+00  1.16888209E+00
  9.58253812E-05  5.24152304E+00 -1.52493030E+00  1.73211245E-04  5.24152304E+00
 -1.52493030E+00  1.73211245E-04  5.24152304E+00 -1.52493030E+00  1.73211245E-04
  5.24152304E+00 -1.52493030E+00  1.73211245E-04  1.40112616E+00  1.40293077E+00
  1.24739276E-05  1.40112616E+00  1.40293077E+00  1.24739276E-05  1.40112616E+00
  1.40293077E+00  1.24739276E-05  1.40112616E+00  1.40293077E+00  1.24739276E-05
 -2.60694878E-01 -5.12718787E-01  2.66289912E-06 -2.60694878E-01 -5.12718787E-01
  2.66289912E-06 -2.60694878E-01 -5.12718787E-01  2.66289912E-06 -2.60694878E-01
 -5.12718787E-01  2.66289912E-06 -2.99773665E+00  2.75767889E-02 -8.45460681E-05
 -2.99773665E+00  2.75767889E-02 -8.45460681E-05 -2.99773665E+00  2.75767889E-02
 -8.45460681E-05 -2.99773665E+00  2.75767889E-02 -8.45460681E-05  4.95262467E+00
  2.19988056E+00  1.64697579E+00  4.95262467E+00  2.19988056E+00  1.64697579E+00
  4.95271714E+00  2.19982102E+00 -1.64678033E+00  4.95271714E+00  2.19982102E+00
 -1.64678033E+00  7.30711516E+00 -1.51403790E+00  2.30536229E-04  7.30711516E+00
 -1.51403790E+00  2.30536229E-04  4.61125798E+00 -2.56055951E+00 -1.67299638E+00
  4.61125798E+00 -2.56055951E+00 -1.67299638E+00  4.61116483E+00 -2.56049869E+00
  1.67334536E+00  4.61116483E+00 -2.56049869E+00  1.67334536E+00  6.27042499E-01
  3.31238221E+00 -4.46828887E-05  6.27042499E-01  3.31238221E+00 -4.46828887E-05
  3.00977144E-01 -2.48364818E+00  5.53059597E-05  3.00977144E-01 -2.48364818E+00
  5.53059597E-05 -6.13859079E+00 -1.61915252E+00 -1.43642582E-04 -6.13859079E+00
 -1.61915252E+00 -1.43642582E-04
Constraint Structure                       R   N=          45
 -4.36703459E+00 -2.15494437E+00 -8.55296831E-05 -3.99036196E+00  2.11186558E+00
 -1.44435399E-04  4.22159296E+00  1.16888209E+00  9.58253812E-05  5.24152304E+00
 -1.52493030E+00  1.73211245E-04  1.40112616E+00  1.40293077E+00  1.24739276E-05
 -2.60694878E-01 -5.12718787E-01  2.66289912E-06 -2.99773665E+00  2.75767889E-02
 -8.45460681E-05  4.95262467E+00  2.19988056E+00  1.64697579E+00  4.95271714E+00
  2.19982102E+00 -1.64678033E+00  7.30711516E+00 -1.51403790E+00  2.30536229E-04
  4.61125798E+00 -2.56055951E+00 -1.67299638E+00  4.61116483E+00 -2.56049869E+00
  1.67334536E+00  6.27042499E-01  3.31238221E+00 -4.46828887E-05  3.00977144E-01
 -2.48364818E+00  5.53059597E-05 -6.13859079E+00 -1.61915252E+00 -1.43642582E-04
Num ILSW                                   I              100
ILSW                                       I   N=         100
           0           1           0           0           2           0
           0           0           0           0           0          -1
           0           0           0           0           0           0
           0           0           0           0           1           0
           1           0           0           0           0           0
           0           0      100000           0          -1           0
           0           0           0           0           0           0
           0           0           0           1           1           0
           0           0           1           0           0           0
           0           0           4          40           0           0
           0           0           0           0           0           0
           0           0           0           0           0           0
           0           0           0           0           0           0
           0           0           0           0           0           0
           0           0           0           0           0           0
           0           0           0           0           0           0
           0           0           0           0
Num RLSW                                   I               40
RLSW                                       R   N=          40
  1.00000000E+00  1.00000000E+00  1.00000000E+00  1.00000000E+00  1.00000000E+00
  0.00000000E+00  0.00000000E+00  1.00000000E+00  0.00000000E+00  0.00000000E+00
  0.00000000E+00  0.00000000E+00  1.00000000E+00  0.00000000E+00  0.00000000E+00
  0.00000000E+00  0.00000000E+00  1.00000000E+00  0.00000000E+00  0.00000000E+00
  0.00000000E+00  0.00000000E+00  1.00000000E+00  0.00000000E+00  0.00000000E+00
  0.00000000E+00  0.00000000E+00  1.00000000E+00  0.00000000E+00  0.00000000E+00
  0.00000000E+00  0.00000000E+00  0.00000000E+00  0.00000000E+00  0.00000000E+00
  0.00000000E+00  0.00000000E+00  0.00000000E+00  1.00000000E+00  1.00000000E+00
MxBond                                     I                4
NBond                                      I   N=          15
           2           1           4           4           3           3
           3           1           1           1           1           1
           1           1           1
IBond                                      I   N=          60
           7          15           0           0           7           0
           0           0           4           5           8           9
           3          10          11          12           3           6
          13           0           5           7          14           0
           1           2           6           0           3           0
           0           0           3           0           0           0
           4           0           0           0           4           0
           0           0           4           0           0           0
           5           0           0           0           6           0
           0           0           1           0           0           0
RBond                                      R   N=          60
  1.50000000E+00  1.00000000E+00  0.00000000E+00  0.00000000E+00  2.00000000E+00
  0.00000000E+00  0.00000000E+00  0.00000000E+00  1.00000000E+00  1.00000000E+00
  1.00000000E+00  1.00000000E+00  1.00000000E+00  1.00000000E+00  1.00000000E+00
  1.00000000E+00  1.00000000E+00  2.00000000E+00  1.00000000E+00  0.00000000E+00
  2.00000000E+00  1.00000000E+00  1.00000000E+00  0.00000000E+00  1.50000000E+00
  2.00000000E+00  1.00000000E+00  0.00000000E+00  1.00000000E+00  0.00000000E+00
  0.00000000E+00  0.00000000E+00  1.00000000E+00  0.00000000E+00  0.00000000E+00
  0.00000000E+00  1.00000000E+00  0.00000000E+00  0.00000000E+00  0.00000000E+00
  1.00000000E+00  0.00000000E+00  0.00000000E+00  0.00000000E+00  1.00000000E+00
  0.00000000E+00  0.00000000E+00  0.00000000E+00  1.00000000E+00  0.00000000E+00
  0.00000000E+00  0.00000000E+00  1.00000000E+00  0.00000000E+00  0.00000000E+00
  0.00000000E+00  1.00000000E+00  0.00000000E+00  0.00000000E+00  0.00000000E+00
Virial Ratio                               R      2.002643230324753E+00
SCF Energy                                 R     -3.437255805494670E+02
MP2 Energy                                 R     -3.447186363422360E+02
Total Energy                               R     -3.447186363422360E+02
Post-SCF wavefunction norm                 R      1.623752589927263E+00
RMS Force                                  R      8.554754671195120E-07
RMS Density                                R      2.353765680036891E-09
External E-field                           R   N=          35
  0.00000000E+00  0.00000000E+00  0.00000000E+00  0.00000000E+00  0.00000000E+00
  0.00000000E+00  0.00000000E+00  0.00000000E+00  0.00000000E+00  0.00000000E+00
  0.00000000E+00  0.00000000E+00  0.00000000E+00  0.00000000E+00  0.00000000E+00
  0.00000000E+00  0.00000000E+00  0.00000000E+00  0.00000000E+00  0.00000000E+00
  0.00000000E+00  0.00000000E+00  0.00000000E+00  0.00000000E+00  0.00000000E+00
  0.00000000E+00  0.00000000E+00  0.00000000E+00  0.00000000E+00  0.00000000E+00
  0.00000000E+00  0.00000000E+00  0.00000000E+00  0.00000000E+00  0.00000000E+00
IOpCl                                      I                0
IROHF                                      I                0
Alpha Orbital Energies                     R   N=         121
 -2.06129519E+01 -2.05461238E+01 -1.13870160E+01 -1.12672329E+01 -1.12467565E+01
 -1.12404746E+01 -1.12288447E+01 -1.44835158E+00 -1.34356115E+00 -1.10797427E+00
 -1.02120155E+00 -9.13563457E-01 -8.38845839E-01 -7.35328616E-01 -7.00689021E-01
 -6.87963185E-01 -6.29313334E-01 -6.15123625E-01 -6.11590318E-01 -5.96842117E-01
 -5.65154677E-01 -5.13400498E-01 -5.10370132E-01 -5.02545353E-01 -4.75533433E-01
 -4.44226374E-01 -3.75387391E-01  1.11521614E-01  2.29522363E-01  2.37456206E-01
  2.58064895E-01  2.76127323E-01  3.00149466E-01  3.03177661E-01  3.21846244E-01
  3.29367678E-01  3.39002896E-01  3.79432774E-01  4.23115061E-01  4.62974686E-01
  5.04711353E-01  5.36916511E-01  5.84174227E-01  7.24965589E-01  7.29238661E-01
  7.51443395E-01  7.53655320E-01  7.82145542E-01  8.35352236E-01  8.37196270E-01
  8.45265553E-01  9.02263916E-01  9.26251865E-01  9.44189196E-01  9.76655605E-01
  9.97373429E-01  1.04568347E+00  1.08185102E+00  1.09339275E+00  1.11285841E+00
  1.12078624E+00  1.13850622E+00  1.15426587E+00  1.18123820E+00  1.19374239E+00
  1.19497901E+00  1.21314241E+00  1.21456386E+00  1.24746033E+00  1.28217099E+00
  1.32400179E+00  1.33700458E+00  1.44509005E+00  1.45662916E+00  1.55315310E+00
  1.57885514E+00  1.60657131E+00  1.61945440E+00  1.68359397E+00  1.77054520E+00
  1.84491110E+00  1.85120541E+00  1.92900978E+00  1.99939561E+00  2.01796375E+00
  2.07424823E+00  2.08970954E+00  2.09446677E+00  2.12355225E+00  2.18178275E+00
  2.20693127E+00  2.25105005E+00  2.28234903E+00  2.31794009E+00  2.35309412E+00
  2.39784305E+00  2.41156279E+00  2.57566353E+00  2.59847631E+00  2.61768224E+00
  2.64408811E+00  2.69137411E+00  2.74539592E+00  2.74672467E+00  2.76982423E+00
  2.83079336E+00  2.90563990E+00  3.01429223E+00  3.04024168E+00  3.10878405E+00
  3.21344180E+00  3.28563024E+00  3.44336336E+00  3.52808127E+00  4.24269025E+00
  4.49175743E+00  4.57999238E+00  4.63864205E+00  4.73344777E+00  4.86699993E+00
  4.95123551E+00
Alpha MO coefficients                      R   N=       14641
  9.94640516E-01  2.11744524E-02 -4.49418499E-04  1.18830012E-03 -3.28742888E-08
  3.99778781E-03  3.62861715E-04 -5.55426064E-04  1.96168076E-08 -4.15114721E-03
 -4.08728465E-03 -3.94703681E-03 -2.01824373E-05 -6.11192085E-09  2.30025449E-09
 -2.59562263E-04  8.83630414E-06  1.21368994E-05  4.18872627E-05 -3.24713391E-10
 -1.71601618E-04  6.45552053E-05  7.91258870E-05  4.73577576E-10  3.80555100E-05
 -7.04547457E-05 -1.96692164E-05 -3.32585358E-05  2.30146080E-09  3.35948604E-11
 -2.16476761E-06 -1.64814135E-05 -1.18285405E-05  4.26349340E-06 -4.26272889E-10
  1.07085774E-04  3.38285693E-06 -1.25769192E-04  2.61460575E-09  7.54036232E-06
  2.14909943E-07 -3.09756310E-06  5.76990681E-06  2.27689851E-10  1.12175270E-10
  2.52017978E-06  1.08215147E-05  5.73424649E-06 -3.56538175E-06  2.40286623E-10
 -1.38618882E-04 -3.95410032E-06 -4.81953831E-05  6.24683367E-10  4.18329702E-06
  2.53013238E-07  4.58819419E-06  1.69045824E-06 -3.16231044E-11  1.33163467E-10
  8.48612493E-06  4.87460108E-05  1.37431752E-05 -6.66502964E-06  5.72537350E-10
 -7.63492036E-04  2.27510417E-04  3.63518495E-04 -7.86434236E-10 -7.51199552E-06
  1.37729845E-05  1.50056068E-05 -6.83697329E-06 -5.96194079E-10 -1.67386701E-10
 -1.14355136E-05 -1.05454028E-05 -8.30625324E-06 -1.65286340E-05  7.42500148E-11
  9.79302857E-04  2.56065738E-04  5.00829755E-04 -2.29662882E-09 -7.45272548E-05
 -1.62930779E-05 -3.25429318E-05 -1.36606189E-05 -1.19300049E-09 -7.99856848E-10
 -2.46430396E-06  3.80866796E-04 -1.62400386E-04 -2.72610528E-04  8.21321804E-11
 -2.07953838E-04 -4.13011547E-04  1.76645994E-04 -1.42223502E-08 -2.19545617E-05
 -5.27096195E-05 -5.29803157E-05 -4.90955701E-05  1.79402144E-09 -1.32976798E-09
 -2.16909398E-06  9.28582021E-06 -2.16901947E-06  9.28587302E-06  6.73191687E-06
  2.08711566E-05  1.99751228E-07  9.98805201E-06  1.99773694E-07  9.98816998E-06
  8.77342719E-06 -5.81468794E-05  4.95780860E-05 -3.56506426E-05  4.36014754E-04
 -2.45568712E-04  2.50097703E-04 -6.17650043E-05  1.77399545E-06 -4.15802455E-05
  7.06207070E-10  2.42244227E-04  4.58373689E-05  1.00606202E-04 -4.10157355E-10
  3.38919841E-05 -9.21862600E-05 -8.41493401E-05  5.74030424E-05  2.73470783E-09
  1.64734750E-09  9.94686413E-01  2.09834033E-02  6.46828116E-04 -1.42384820E-03
  3.95414680E-08  4.55141489E-03 -2.37378388E-05  9.79881553E-06 -7.06099354E-10
 -3.87323388E-03 -3.66914052E-03 -4.12763079E-03 -1.36904871E-04  1.03254759E-08
 -1.21562830E-08  2.75734776E-06  1.46154249E-05  1.94078985E-06 -2.72715097E-07
  4.39136455E-11 -1.29710243E-04  8.26502759E-05 -7.98728030E-05  3.97030665E-09
 -4.76791128E-06  6.57507826E-06  3.12087905E-06  7.08702656E-06 -3.93231133E-10
  1.37591890E-10  1.04740016E-06  3.95341459E-06 -5.30956467E-07 -1.26317572E-07
 -1.92820050E-12 -4.75203710E-05  3.28855320E-07 -2.25266309E-05  3.20272975E-10
  1.45911580E-06 -6.82714798E-08  3.06119943E-06 -1.50308436E-06 -1.25615447E-11
  1.83627125E-11 -9.62775562E-08  3.54513333E-06 -7.29686303E-07  1.07307733E-05
 -2.10913443E-10 -1.14724751E-04  2.12008254E-04  2.56112826E-04  8.27168448E-10
  6.83077013E-06 -4.13935684E-05  5.77462926E-06 -2.48059854E-05  5.41748826E-10
  4.08346416E-10  1.74876226E-06 -1.21924910E-05 -4.69338627E-07 -1.74574463E-05
  1.86351370E-10  7.33938454E-05  2.87360296E-04  1.67915025E-04  5.11836817E-09
  6.09423308E-05 -1.53901039E-05 -1.00024313E-05  8.73381388E-05  9.25663806E-10
  2.55961099E-09 -5.57012771E-06  4.95911533E-04  1.80106368E-05 -4.06177907E-05
  1.03184240E-09 -3.52055186E-04  4.15591744E-04 -3.97865355E-04  1.77673893E-08
 -1.96592792E-04 -6.88729990E-04 -4.02112343E-05  3.27797431E-04 -1.00947936E-08
  2.07463112E-08  5.18698086E-06  1.20047469E-05  5.18703911E-06  1.20047993E-05
  3.10232419E-06 -1.73354251E-06  6.49288585E-07 -7.15291523E-07  6.49323504E-07
 -7.15271603E-07  2.50984504E-05 -1.74459880E-04  2.54705323E-05 -9.32340632E-06
 -1.84480758E-05 -7.07518981E-06 -8.25845638E-05  6.43684139E-04  1.57856314E-05
  1.81738359E-04 -2.62497118E-09 -1.31737601E-03  2.14131876E-05 -1.76922527E-03
  3.05964628E-08 -2.00766175E-05 -5.19387063E-04  5.45850092E-04 -4.27567093E-04
 -1.09903096E-08  9.25749657E-09 -2.23313807E-04  8.43357022E-04  9.14411572E-05
 -2.95301571E-04  6.92470274E-09 -4.51443293E-03 -1.72984068E-04  2.16868278E-03
 -3.63620422E-08  4.30131070E-04  5.69081962E-05  5.38436835E-04 -4.75240897E-05
 -2.51554731E-09  6.67394453E-09 -1.18732509E-05 -5.91418722E-05 -1.21120880E-06
  2.12957934E-06 -2.28509107E-10  4.89568759E-04 -3.80096476E-04  4.00334893E-04
 -1.72386601E-08  4.28894136E-06 -4.27683341E-05 -2.56572007E-05 -8.19652265E-06
  1.15004618E-09  1.16015063E-10 -2.89180686E-05 -9.71231863E-05  6.43916217E-05
  1.73828701E-06  1.76576456E-09  4.93726057E-04 -3.91478509E-04  1.38779348E-04
 -1.37873840E-08 -3.56492651E-05 -1.99125935E-05 -3.87326385E-05 -2.48511787E-06
  1.32280220E-10 -4.92609078E-10 -1.41005143E-05 -2.18335631E-04  6.07897447E-05
 -7.16403578E-05  3.18722002E-09  1.58754965E-03 -1.25933097E-03 -9.53130004E-04
 -1.68319266E-08  4.92639624E-05  1.35328826E-04 -8.13406594E-05  8.40042371E-05
  2.55518186E-09 -2.59605699E-09  2.32322884E-03  6.13804024E-05  1.31446922E-04
  7.82579645E-06  3.82194191E-09  4.07591063E-03 -3.59653115E-03 -1.29991893E-03
 -7.82052929E-08 -5.49896887E-04 -2.66171274E-04 -1.71992982E-04 -5.63523116E-05
 -1.11968207E-08  4.10270050E-10  9.95920731E-01  2.59235649E-02 -7.88904013E-04
 -4.78630790E-04 -1.36885478E-08 -6.63741016E-03 -5.01793996E-03  2.75800470E-03
 -1.86469716E-07 -1.08252352E-03 -4.64334807E-04 -2.23946972E-03 -1.68835092E-04
  3.90553005E-08 -3.79353186E-08 -2.12676417E-05 -5.42687184E-05 -2.12675867E-05
 -5.42677489E-05  8.50423380E-06  1.88046935E-04 -5.04903902E-05 -2.85003900E-05
 -5.04905994E-05 -2.84993113E-05 -1.01375578E-04  1.68693459E-04 -2.07168460E-04
 -5.15193504E-04  2.89115619E-04 -1.80721976E-05 -2.00785623E-05 -8.35270564E-05
 -2.38522531E-05  3.45314747E-06 -7.93264359E-10  4.40323192E-04  2.18348416E-04
  4.64394511E-05  5.60903920E-09 -3.03804617E-05 -7.27909891E-05 -6.10944650E-05
  1.54074234E-05  8.24071131E-10  6.62370558E-10  8.67115349E-06  2.74444791E-05
  3.82361614E-07  3.39175650E-06 -1.63990904E-10 -1.73146381E-04 -8.34612251E-05
 -5.64390627E-05 -9.53106580E-10  1.04194953E-05  3.73802818E-05  1.16003337E-05
 -1.69764999E-05  3.25169341E-10 -9.70794497E-10  1.63781507E-02  5.87799719E-04