
    -----------------------------------------------------------------------
          Psi4: An Open-Source Ab Initio Electronic Structure Package
                               Psi4 1.3.2 release

                         Git: Rev {HEAD} ecbda83 


    R. M. Parrish, L. A. Burns, D. G. A. Smith, A. C. Simmonett,
    A. E. DePrince III, E. G. Hohenstein, U. Bozkaya, A. Yu. Sokolov,
    R. Di Remigio, R. M. Richard, J. F. Gonthier, A. M. James,
    H. R. McAlexander, A. Kumar, M. Saitow, X. Wang, B. P. Pritchard,
    P. Verma, H. F. Schaefer III, K. Patkowski, R. A. King, E. F. Valeev,
    F. A. Evangelista, J. M. Turney, T. D. Crawford, and C. D. Sherrill,
    J. Chem. Theory Comput. 13(7) pp 3185--3197 (2017).
    (doi: 10.1021/acs.jctc.7b00174)


                         Additional Contributions by
    P. Kraus, H. Kruse, M. H. Lechner, M. C. Schieber, R. A. Shaw,
    A. Alenaizan, R. Galvelis, Z. L. Glick, S. Lehtola, and J. P. Misiewicz

    -----------------------------------------------------------------------


    Psi4 started on: Saturday, 27 March 2021 06:22PM

    Process ID: 31143
    Host:       node142.bme.utexas.edu
    PSIDATADIR: /home/xy3866/psi4conda/share/psi4
    Memory:     500.0 MiB
    Threads:    8
    
  ==> Input File <==

--------------------------------------------------------------------------
#psi4
#
memory 32 gb

molecule  {
-1 1
  O       -2.4775990    -1.4732410    -0.5357720
  O       -2.5836320     0.8103810    -0.7086120
  C        0.1769840    -0.1996970     0.5360780
  C        0.8528670     0.9715620     0.1268880
  C       -1.2378850    -0.1617980     1.0317040
  C        0.8256870    -1.4354030     0.3918760
  C        2.1654290     0.8711020    -0.3500530
  C        0.1613040     2.3091050     0.2016770
  C        2.1298550    -1.5237740    -0.0958170
  C        2.8103870    -0.3625320    -0.4658790
  C       -2.2184660    -0.2891600    -0.2009230
  H       -1.4126520    -1.0091000     1.7035120
  H       -1.4413430     0.7679950     1.5725290
  H        0.2756770    -2.3364080     0.6567980
  H        2.6838580     1.7794620    -0.6595800
  H       -0.8491240     2.2156170    -0.2099720
  H        0.0735000     2.6566880     1.2394400
  H        0.7245490     3.0640340    -0.3581400
  H        2.6081740    -2.4970700    -0.1982670
  H        3.8302350    -0.4147610    -0.8445580
units angstrom
no_reorient  #important for SAPT in psi4, default
symmetry c1  #important for SAPT in psi4, default
}

set PROPERTIES_ORIGIN ["COM"]
properties('MP2/aug-cc-pvtz', properties = ['dipole'])
--------------------------------------------------------------------------

  Memory set to  29.802 GiB by Python driver.
    SCF Algorithm Type (re)set to DF.

*** tstart() called on node142.bme.utexas.edu
*** at Sat Mar 27 18:22:24 2021

   => Loading Basis Set <=

    Name: AUG-CC-PVTZ
    Role: ORBITAL
    Keyword: BASIS
    atoms 1-2   entry O          line   327 file /home/xy3866/psi4conda/share/psi4/basis/aug-cc-pvtz.gbs 
    atoms 3-11  entry C          line   235 file /home/xy3866/psi4conda/share/psi4/basis/aug-cc-pvtz.gbs 
    atoms 12-20 entry H          line    36 file /home/xy3866/psi4conda/share/psi4/basis/aug-cc-pvtz.gbs 


         ---------------------------------------------------------
                                   SCF
               by Justin Turney, Rob Parrish, Andy Simmonett
                          and Daniel G. A. Smith
                              RHF Reference
                        8 Threads,  30517 MiB Core
         ---------------------------------------------------------

  ==> Geometry <==

    Molecular point group: c1
    Full point group: C1

    Geometry (in Angstrom), charge = -1, multiplicity = 1:

       Center              X                  Y                   Z               Mass       
    ------------   -----------------  -----------------  -----------------  -----------------
         O           -2.434553771164    -1.445131562271    -0.516499689874    15.994914619570
         O           -2.540586771164     0.838490437729    -0.689339689874    15.994914619570
         C            0.220029228836    -0.171587562271     0.555350310126    12.000000000000
         C            0.895912228836     0.999671437729     0.146160310126    12.000000000000
         C           -1.194839771164    -0.133688562271     1.050976310126    12.000000000000
         C            0.868732228836    -1.407293562271     0.411148310126    12.000000000000
         C            2.208474228836     0.899211437729    -0.330780689874    12.000000000000
         C            0.204349228836     2.337214437729     0.220949310126    12.000000000000
         C            2.172900228836    -1.495664562271    -0.076544689874    12.000000000000
         C            2.853432228836    -0.334422562271    -0.446606689874    12.000000000000
         C           -2.175420771164    -0.261050562271    -0.181650689874    12.000000000000
         H           -1.369606771164    -0.980990562271     1.722784310126     1.007825032230
         H           -1.398297771164     0.796104437729     1.591801310126     1.007825032230
         H            0.318722228836    -2.308298562271     0.676070310126     1.007825032230
         H            2.726903228836     1.807571437729    -0.640307689874     1.007825032230
         H           -0.806078771164     2.243726437729    -0.190699689874     1.007825032230
         H            0.116545228836     2.684797437729     1.258712310126     1.007825032230
         H            0.767594228836     3.092143437729    -0.338867689874     1.007825032230
         H            2.651219228836    -2.468960562271    -0.178994689874     1.007825032230
         H            3.873280228836    -0.386651562271    -0.825285689874     1.007825032230

  Running in c1 symmetry.

  Rotational constants: A =      0.06283  B =      0.02885  C =      0.02208 [cm^-1]
  Rotational constants: A =   1883.59493  B =    864.88909  C =    661.90929 [MHz]
  Nuclear repulsion =  572.023090769183909

  Charge       = -1
  Multiplicity = 1
  Electrons    = 80
  Nalpha       = 40
  Nbeta        = 40

  ==> Algorithm <==

  SCF Algorithm Type is DF.
  DIIS enabled.
  MOM disabled.
  Fractional occupation disabled.
  Guess Type is SAD.
  Energy threshold   = 1.00e-10
  Density threshold  = 1.00e-10
  Integral threshold = 0.00e+00

  ==> Primary Basis <==

  Basis Set: AUG-CC-PVTZ
    Blend: AUG-CC-PVTZ
    Number of shells: 235
    Number of basis function: 713
    Number of Cartesian functions: 830
    Spherical Harmonics?: true
    Max angular momentum: 3

   => Loading Basis Set <=

    Name: (AUG-CC-PVTZ AUX)
    Role: JKFIT
    Keyword: DF_BASIS_SCF
    atoms 1-2   entry O          line   286 file /home/xy3866/psi4conda/share/psi4/basis/aug-cc-pvtz-jkfit.gbs 
    atoms 3-11  entry C          line   162 file /home/xy3866/psi4conda/share/psi4/basis/aug-cc-pvtz-jkfit.gbs 
    atoms 12-20 entry H          line    70 file /home/xy3866/psi4conda/share/psi4/basis/aug-cc-pvtz-jkfit.gbs 

  ==> Pre-Iterations <==

   -------------------------------------------------------
    Irrep   Nso     Nmo     Nalpha   Nbeta   Ndocc  Nsocc
   -------------------------------------------------------
     A        713     713       0       0       0       0
   -------------------------------------------------------
    Total     713     713      40      40      40       0
   -------------------------------------------------------

  ==> Integral Setup <==

  DFHelper Memory: AOs need 5.737 GiB; user supplied 22.352 GiB. Using in-core AOs.

  ==> MemDFJK: Density-Fitted J/K Matrices <==

    J tasked:                   Yes
    K tasked:                   Yes
    wK tasked:                   No
    OpenMP threads:               8
    Memory [MiB]:             22888
    Algorithm:                 Disk
    Schwarz Cutoff:           1E-12
    Mask sparsity (%):       5.3276
    Fitting Condition:        1E-10

   => Auxiliary Basis Set <=

  Basis Set: (AUG-CC-PVTZ AUX)
    Blend: AUG-CC-PVTZ-JKFIT
    Number of shells: 456
    Number of basis function: 1558
    Number of Cartesian functions: 1936
    Spherical Harmonics?: true
    Max angular momentum: 4

  Minimum eigenvalue in the overlap matrix is 4.6035503364E-07.
  Using Symmetric Orthogonalization.

  SCF Guess: Superposition of Atomic Densities via on-the-fly atomic UHF.

  ==> Iterations <==

                           Total Energy        Delta E     RMS |[F,P]|

   @DF-RHF iter SAD:  -494.88710697751111   -4.94887e+02   0.00000e+00 
   @DF-RHF iter   1:  -495.59063896715674   -7.03532e-01   1.23018e-03 DIIS
   @DF-RHF iter   2:  -495.89537464836366   -3.04736e-01   7.10657e-04 DIIS
   @DF-RHF iter   3:  -495.99240318612698   -9.70285e-02   1.10859e-04 DIIS
   @DF-RHF iter   4:  -495.99658889476893   -4.18571e-03   4.26778e-05 DIIS
   @DF-RHF iter   5:  -495.99718644033157   -5.97546e-04   8.03455e-06 DIIS
   @DF-RHF iter   6:  -495.99721634259345   -2.99023e-05   2.69072e-06 DIIS
   @DF-RHF iter   7:  -495.99721959304480   -3.25045e-06   8.24057e-07 DIIS
   @DF-RHF iter   8:  -495.99721993207186   -3.39027e-07   2.78647e-07 DIIS
   @DF-RHF iter   9:  -495.99721996787855   -3.58067e-08   1.16789e-07 DIIS
   @DF-RHF iter  10:  -495.99721997421221   -6.33366e-09   3.51463e-08 DIIS
   @DF-RHF iter  11:  -495.99721997520476   -9.92543e-10   1.75279e-08 DIIS
   @DF-RHF iter  12:  -495.99721997542122   -2.16460e-10   8.25740e-09 DIIS
   @DF-RHF iter  13:  -495.99721997549113   -6.99174e-11   3.26678e-09 DIIS
   @DF-RHF iter  14:  -495.99721997550489   -1.37561e-11   1.39416e-09 DIIS
   @DF-RHF iter  15:  -495.99721997551046   -5.57066e-12   6.00832e-10 DIIS
   @DF-RHF iter  16:  -495.99721997550620    4.26326e-12   2.59622e-10 DIIS
   @DF-RHF iter  17:  -495.99721997551040   -4.20641e-12   1.08780e-10 DIIS
   @DF-RHF iter  18:  -495.99721997551092   -5.11591e-13   4.64861e-11 DIIS
  Energy and wave function converged.


  ==> Post-Iterations <==

    Orbital Energies [Eh]
    ---------------------

    Doubly Occupied:                                                      

       1A    -20.309202     2A    -20.309027     3A    -11.156933  
       4A    -11.118439     5A    -11.117195     6A    -11.116091  
       7A    -11.114692     8A    -11.112727     9A    -11.106976  
      10A    -11.092216    11A    -11.073720    12A     -1.179262  
      13A     -1.083407    14A     -1.032234    15A     -0.926922  
      16A     -0.907777    17A     -0.821142    18A     -0.787802  
      19A     -0.689876    20A     -0.664310    21A     -0.562353  
      22A     -0.533130    23A     -0.523209    24A     -0.499712  
      25A     -0.461406    26A     -0.453302    27A     -0.439890  
      28A     -0.428384    29A     -0.426023    30A     -0.412416  
      31A     -0.384310    32A     -0.374685    33A     -0.364689  
      34A     -0.351699    35A     -0.332927    36A     -0.235168  
      37A     -0.225578    38A     -0.211356    39A     -0.207143  
      40A     -0.176246  

    Virtual:                                                              

      41A      0.098337    42A      0.105740    43A      0.111807  
      44A      0.120585    45A      0.123825    46A      0.135053  
      47A      0.139570    48A      0.152529    49A      0.166378  
      50A      0.175793    51A      0.180906    52A      0.187014  
      53A      0.191973    54A      0.196994    55A      0.200658  
      56A      0.205671    57A      0.208432    58A      0.209532  
      59A      0.210149    60A      0.214383    61A      0.220054  
      62A      0.230974    63A      0.232634    64A      0.239041  
      65A      0.244852    66A      0.246213    67A      0.250688  
      68A      0.254992    69A      0.259514    70A      0.261658  
      71A      0.265302    72A      0.268861    73A      0.275719  
      74A      0.284781    75A      0.286582    76A      0.294227  
      77A      0.301706    78A      0.307870    79A      0.314492  
      80A      0.322716    81A      0.333567    82A      0.347969  
      83A      0.349263    84A      0.355625    85A      0.363275  
      86A      0.366497    87A      0.373138    88A      0.377964  
      89A      0.380210    90A      0.386459    91A      0.389281  
      92A      0.395214    93A      0.398430    94A      0.402190  
      95A      0.402990    96A      0.415756    97A      0.418964  
      98A      0.421139    99A      0.430378   100A      0.431347  
     101A      0.435560   102A      0.440275   103A      0.446939  
     104A      0.449817   105A      0.453422   106A      0.460180  
     107A      0.465884   108A      0.469080   109A      0.483111  
     110A      0.484869   111A      0.491015   112A      0.498114  
     113A      0.503658   114A      0.505092   115A      0.509304  
     116A      0.511617   117A      0.516624   118A      0.517808  
     119A      0.535819   120A      0.543571   121A      0.549116  
     122A      0.552260   123A      0.554721   124A      0.557468  
     125A      0.567817   126A      0.570101   127A      0.571899  
     128A      0.575925   129A      0.579665   130A      0.584192  
     131A      0.590773   132A      0.593150   133A      0.597869  
     134A      0.602433   135A      0.604659   136A      0.612060  
     137A      0.614009   138A      0.620082   139A      0.622855  
     140A      0.625559   141A      0.627752   142A      0.636237  
     143A      0.638491   144A      0.643404   145A      0.648367  
     146A      0.652295   147A      0.655906   148A      0.662297  
     149A      0.664599   150A      0.669062   151A      0.680315  
     152A      0.688193   153A      0.691783   154A      0.698037  
     155A      0.703378   156A      0.706000   157A      0.709695  
     158A      0.719894   159A      0.726610   160A      0.734061  
     161A      0.743975   162A      0.746478   163A      0.755626  
     164A      0.761730   165A      0.768461   166A      0.775838  
     167A      0.785777   168A      0.786746   169A      0.789477  
     170A      0.799283   171A      0.801354   172A      0.803677  
     173A      0.820311   174A      0.824115   175A      0.824942  
     176A      0.831156   177A      0.835282   178A      0.852634  
     179A      0.855034   180A      0.859871   181A      0.871481  
     182A      0.880911   183A      0.890326   184A      0.900625  
     185A      0.903578   186A      0.909995   187A      0.916406  
     188A      0.924816   189A      0.927610   190A      0.939752  
     191A      0.945313   192A      0.954371   193A      0.956798  
     194A      0.965798   195A      0.972947   196A      0.976504  
     197A      0.978694   198A      0.986318   199A      0.992933  
     200A      0.995935   201A      1.001304   202A      1.016756  
     203A      1.019645   204A      1.028832   205A      1.031071  
     206A      1.039212   207A      1.040591   208A      1.047013  
     209A      1.052743   210A      1.053897   211A      1.056745  
     212A      1.064803   213A      1.071503   214A      1.076804  
     215A      1.081701   216A      1.093816   217A      1.097357  
     218A      1.097499   219A      1.106537   220A      1.114942  
     221A      1.117441   222A      1.129700   223A      1.138940  
     224A      1.142376   225A      1.144518   226A      1.150749  
     227A      1.153881   228A      1.160338   229A      1.168284  
     230A      1.172597   231A      1.174999   232A      1.178122  
     233A      1.184641   234A      1.188860   235A      1.192169  
     236A      1.197312   237A      1.203370   238A      1.207338  
     239A      1.215255   240A      1.223812   241A      1.225261  
     242A      1.228939   243A      1.236986   244A      1.241153  
     245A      1.242993   246A      1.251669   247A      1.259094  
     248A      1.262599   249A      1.274333   250A      1.278127  
     251A      1.283078   252A      1.291715   253A      1.294223  
     254A      1.297296   255A      1.300324   256A      1.310163  
     257A      1.315459   258A      1.324933   259A      1.334421  
     260A      1.337205   261A      1.339478   262A      1.347019  
     263A      1.349727   264A      1.360178   265A      1.364924  
     266A      1.365833   267A      1.373849   268A      1.382615  
     269A      1.385149   270A      1.396587   271A      1.409461  
     272A      1.417598   273A      1.420749   274A      1.428921  
     275A      1.436699   276A      1.448295   277A      1.457044  
     278A      1.461394   279A      1.478856   280A      1.483458  
     281A      1.489340   282A      1.495521   283A      1.503384  
     284A      1.504460   285A      1.513907   286A      1.526741  
     287A      1.534566   288A      1.544836   289A      1.551526  
     290A      1.554518   291A      1.556718   292A      1.567181  
     293A      1.574844   294A      1.594022   295A      1.597387  
     296A      1.606049   297A      1.617463   298A      1.623451  
     299A      1.633613   300A      1.646289   301A      1.654240  
     302A      1.660011   303A      1.663339   304A      1.673313  
     305A      1.686437   306A      1.690533   307A      1.696368  
     308A      1.705365   309A      1.713511   310A      1.720983  
     311A      1.732524   312A      1.737286   313A      1.753491  
     314A      1.764190   315A      1.771167   316A      1.779680  
     317A      1.787894   318A      1.793429   319A      1.797474  
     320A      1.803865   321A      1.809222   322A      1.817058  
     323A      1.826577   324A      1.830883   325A      1.840784  
     326A      1.848622   327A      1.855659   328A      1.869518  
     329A      1.879082   330A      1.885496   331A      1.899246  
     332A      1.900994   333A      1.909144   334A      1.917383  
     335A      1.922557   336A      1.934436   337A      1.949714  
     338A      1.956710   339A      1.962050   340A      1.970121  
     341A      1.976350   342A      1.988909   343A      1.994024  
     344A      2.003955   345A      2.006288   346A      2.016398  
     347A      2.024493   348A      2.031517   349A      2.054747  
     350A      2.061652   351A      2.066850   352A      2.076189  
     353A      2.077027   354A      2.088804   355A      2.103236  
     356A      2.126811   357A      2.133580   358A      2.141938  
     359A      2.145586   360A      2.156523   361A      2.164124  
     362A      2.175076   363A      2.179343   364A      2.188965  
     365A      2.195007   366A      2.202532   367A      2.209508  
     368A      2.221890   369A      2.225427   370A      2.237926  
     371A      2.241692   372A      2.250776   373A      2.261520  
     374A      2.264113   375A      2.280485   376A      2.285535  
     377A      2.294538   378A      2.299993   379A      2.313100  
     380A      2.320781   381A      2.326435   382A      2.336663  
     383A      2.341543   384A      2.346960   385A      2.371949  
     386A      2.377860   387A      2.388544   388A      2.394254  
     389A      2.405647   390A      2.410318   391A      2.426630  
     392A      2.433996   393A      2.457467   394A      2.469604  
     395A      2.474990   396A      2.484807   397A      2.496771  
     398A      2.510200   399A      2.533200   400A      2.539701  
     401A      2.543114   402A      2.559671   403A      2.569255  
     404A      2.581492   405A      2.593594   406A      2.603922  
     407A      2.612901   408A      2.642666   409A      2.649721  
     410A      2.660092   411A      2.695310   412A      2.700890  
     413A      2.708019   414A      2.722283   415A      2.735789  
     416A      2.740429   417A      2.749532   418A      2.754788  
     419A      2.768488   420A      2.786024   421A      2.800312  
     422A      2.818552   423A      2.834653   424A      2.844595  
     425A      2.867593   426A      2.871706   427A      2.889883  
     428A      2.899701   429A      2.920746   430A      2.925707  
     431A      2.935200   432A      2.951357   433A      2.956866  
     434A      2.982136   435A      2.997334   436A      3.005543  
     437A      3.020226   438A      3.045898   439A      3.080316  
     440A      3.110743   441A      3.119796   442A      3.142007  
     443A      3.176797   444A      3.184264   445A      3.196718  
     446A      3.268003   447A      3.279121   448A      3.283714  
     449A      3.297878   450A      3.333214   451A      3.350600  
     452A      3.372864   453A      3.381274   454A      3.410366  
     455A      3.416503   456A      3.426182   457A      3.447266  
     458A      3.456502   459A      3.476602   460A      3.495509  
     461A      3.510552   462A      3.531546   463A      3.536414  
     464A      3.545616   465A      3.555360   466A      3.567184  
     467A      3.574447   468A      3.590719   469A      3.608400  
     470A      3.610746   471A      3.620575   472A      3.623042  
     473A      3.631294   474A      3.653872   475A      3.661697  
     476A      3.675336   477A      3.686811   478A      3.696497  
     479A      3.714017   480A      3.721484   481A      3.731014  
     482A      3.743053   483A      3.754982   484A      3.767268  
     485A      3.775690   486A      3.786411   487A      3.796610  
     488A      3.816016   489A      3.825160   490A      3.843295  
     491A      3.856603   492A      3.859391   493A      3.864720  
     494A      3.872845   495A      3.890283   496A      3.892521  
     497A      3.904430   498A      3.909985   499A      3.922842  
     500A      3.939664   501A      3.946009   502A      3.985751  
     503A      3.988066   504A      3.999998   505A      4.003159  
     506A      4.008152   507A      4.023287   508A      4.042902  
     509A      4.046595   510A      4.052750   511A      4.056786  
     512A      4.060203   513A      4.084146   514A      4.085938  
     515A      4.091911   516A      4.097395   517A      4.104228  
     518A      4.121768   519A      4.137654   520A      4.139253  
     521A      4.159431   522A      4.166285   523A      4.178946  
     524A      4.183517   525A      4.197340   526A      4.202671  
     527A      4.219313   528A      4.229763   529A      4.241473  
     530A      4.249529   531A      4.276999   532A      4.283478  
     533A      4.297749   534A      4.307614   535A      4.310787  
     536A      4.332012   537A      4.344521   538A      4.350929  
     539A      4.359714   540A      4.368371   541A      4.376131  
     542A      4.381615   543A      4.383254   544A      4.397929  
     545A      4.405328   546A      4.417674   547A      4.427955  
     548A      4.434673   549A      4.446581   550A      4.457626  
     551A      4.464913   552A      4.491932   553A      4.504837  
     554A      4.505571   555A      4.515059   556A      4.523507  
     557A      4.527565   558A      4.535818   559A      4.546032  
     560A      4.567387   561A      4.574444   562A      4.584615  
     563A      4.594493   564A      4.600200   565A      4.619599  
     566A      4.630421   567A      4.636877   568A      4.641232  
     569A      4.662267   570A      4.672391   571A      4.696823  
     572A      4.707757   573A      4.723506   574A      4.741910  
     575A      4.751207   576A      4.771866   577A      4.779534  
     578A      4.802237   579A      4.805302   580A      4.820807  
     581A      4.841723   582A      4.856413   583A      4.867463  
     584A      4.872763   585A      4.890805   586A      4.901541  
     587A      4.917542   588A      4.923105   589A      4.934807  
     590A      4.952236   591A      4.968141   592A      4.983192  
     593A      4.995628   594A      5.001513   595A      5.037929  
     596A      5.054143   597A      5.065432   598A      5.071562  
     599A      5.090717   600A      5.096716   601A      5.114107  
     602A      5.142761   603A      5.151422   604A      5.166189  
     605A      5.179939   606A      5.196666   607A      5.205381  
     608A      5.216846   609A      5.232736   610A      5.244851  
     611A      5.257172   612A      5.283517   613A      5.293878  
     614A      5.302862   615A      5.315830   616A      5.337917  
     617A      5.362317   618A      5.369566   619A      5.379647  
     620A      5.383846   621A      5.401989   622A      5.408554  
     623A      5.441123   624A      5.452668   625A      5.461403  
     626A      5.471644   627A      5.484456   628A      5.527616  
     629A      5.556600   630A      5.567418   631A      5.581112  
     632A      5.586390   633A      5.604025   634A      5.616549  
     635A      5.619620   636A      5.643114   637A      5.663426  
     638A      5.726003   639A      5.736133   640A      5.766468  
     641A      5.792677   642A      5.814084   643A      5.827078  
     644A      5.830518   645A      5.844243   646A      5.887771  
     647A      5.895090   648A      5.929506   649A      5.949720  
     650A      5.986358   651A      6.049027   652A      6.070393  
     653A      6.190007   654A      6.216928   655A      6.239565  
     656A      6.277682   657A      6.286698   658A      6.305859  
     659A      6.356280   660A      6.370979   661A      6.388419  
     662A      6.398006   663A      6.431325   664A      6.482292  
     665A      6.493451   666A      6.579424   667A      6.642852  
     668A      6.667965   669A      6.708049   670A      6.739067  
     671A      6.814308   672A      6.931068   673A      6.933718  
     674A      6.964942   675A      6.980735   676A      7.023993  
     677A      7.061691   678A      7.106574   679A      7.124552  
     680A      7.132307   681A      7.187806   682A      7.210503  
     683A      7.223482   684A      7.229420   685A      7.310152  
     686A      7.337182   687A      7.390622   688A      7.428453  
     689A      7.470232   690A      7.572731   691A      7.607597  
     692A      7.628877   693A      7.660859   694A      7.822852  
     695A      7.844548   696A      7.925712   697A      7.936575  
     698A      7.985672   699A      8.097789   700A      8.106661  
     701A      8.240227   702A      8.292661   703A     15.341336  
     704A     15.419988   705A     16.374761   706A     16.487541  
     707A     17.427447   708A     18.407772   709A     19.159831  
     710A     19.312854   711A     20.267950   712A     20.600908  
     713A     21.160708  

    Final Occupation by Irrep:
              A 
    DOCC [    40 ]

  @DF-RHF Final Energy:  -495.99721997551092

   => Energetics <=

    Nuclear Repulsion Energy =            572.0230907691839093
    One-Electron Energy =               -1823.3934774914810077
    Two-Electron Energy =                 755.3731667467861826
    Total Energy =                       -495.9972199755109159

Computation Completed

*** tstop() called on node142.bme.utexas.edu at Sat Mar 27 18:24:11 2021
Module time:
	user time   =     467.84 seconds =       7.80 minutes
	system time =      62.49 seconds =       1.04 minutes
	total time  =        107 seconds =       1.78 minutes
Total time:
	user time   =     467.84 seconds =       7.80 minutes
	system time =      62.49 seconds =       1.04 minutes
	total time  =        107 seconds =       1.78 minutes
   => Loading Basis Set <=

    Name: (AUG-CC-PVTZ AUX)
    Role: RIFIT
    Keyword: DF_BASIS_MP2
    atoms 1-2   entry O          line   264 file /home/xy3866/psi4conda/share/psi4/basis/aug-cc-pvtz-ri.gbs 
    atoms 3-11  entry C          line   148 file /home/xy3866/psi4conda/share/psi4/basis/aug-cc-pvtz-ri.gbs 
    atoms 12-20 entry H          line    30 file /home/xy3866/psi4conda/share/psi4/basis/aug-cc-pvtz-ri.gbs 


*** tstart() called on node142.bme.utexas.edu
*** at Sat Mar 27 18:24:11 2021


  //>>>>>>>>>>>>>>>>>>>>>>>>>>>>>>>>>>>//
  //               DFMP2               //
  //<<<<<<<<<<<<<<<<<<<<<<<<<<<<<<<<<<<//

	 --------------------------------------------------------
	                          DF-MP2                         
	      2nd-Order Density-Fitted Moller-Plesset Theory     
	              RMP2 Wavefunction,   8 Threads             
	                                                         
	        Rob Parrish, Justin Turney, Andy Simmonett,      
	           Ed Hohenstein, and C. David Sherrill          
	 --------------------------------------------------------

   => Auxiliary Basis Set <=

  Basis Set: (AUG-CC-PVTZ AUX)
    Blend: AUG-CC-PVTZ-RI
    Number of shells: 434
    Number of basis function: 1580
    Number of Cartesian functions: 1991
    Spherical Harmonics?: true
    Max angular momentum: 4

	 --------------------------------------------------------
	                 NBF =   713, NAUX =  1580
	 --------------------------------------------------------
	   CLASS    FOCC     OCC    AOCC    AVIR     VIR    FVIR
	   PAIRS       0      40      40     673     673       0
	 --------------------------------------------------------

  DFHelper Memory: AOs need 5.737 GiB; user supplied 22.352 GiB. Using in-core AOs.


         ------------------------------------------------------------
                                     CPHF                           
                                  Rob Parrish                       
         ------------------------------------------------------------

  ==> Geometry <==

    Molecular point group: c1
    Full point group: C1

    Geometry (in Angstrom), charge = -1, multiplicity = 1:

       Center              X                  Y                   Z               Mass       
    ------------   -----------------  -----------------  -----------------  -----------------
         O           -2.434553771164    -1.445131562271    -0.516499689874    15.994914619570
         O           -2.540586771164     0.838490437729    -0.689339689874    15.994914619570
         C            0.220029228836    -0.171587562271     0.555350310126    12.000000000000
         C            0.895912228836     0.999671437729     0.146160310126    12.000000000000
         C           -1.194839771164    -0.133688562271     1.050976310126    12.000000000000
         C            0.868732228836    -1.407293562271     0.411148310126    12.000000000000
         C            2.208474228836     0.899211437729    -0.330780689874    12.000000000000
         C            0.204349228836     2.337214437729     0.220949310126    12.000000000000
         C            2.172900228836    -1.495664562271    -0.076544689874    12.000000000000
         C            2.853432228836    -0.334422562271    -0.446606689874    12.000000000000
         C           -2.175420771164    -0.261050562271    -0.181650689874    12.000000000000
         H           -1.369606771164    -0.980990562271     1.722784310126     1.007825032230
         H           -1.398297771164     0.796104437729     1.591801310126     1.007825032230
         H            0.318722228836    -2.308298562271     0.676070310126     1.007825032230
         H            2.726903228836     1.807571437729    -0.640307689874     1.007825032230
         H           -0.806078771164     2.243726437729    -0.190699689874     1.007825032230
         H            0.116545228836     2.684797437729     1.258712310126     1.007825032230
         H            0.767594228836     3.092143437729    -0.338867689874     1.007825032230
         H            2.651219228836    -2.468960562271    -0.178994689874     1.007825032230
         H            3.873280228836    -0.386651562271    -0.825285689874     1.007825032230

  Nuclear repulsion =  572.023090769183909
  Reference energy  = -495.997219975510916

  ==> Basis Set <==

  Basis Set: AUG-CC-PVTZ
    Blend: AUG-CC-PVTZ
    Number of shells: 235
    Number of basis function: 713
    Number of Cartesian functions: 830
    Spherical Harmonics?: true
    Max angular momentum: 3

  ==> CGRSolver (by Rob Parrish) <==

   Number of roots    =         1
   Preconditioning    =    JACOBI
   Convergence cutoff =     1E-06
   Maximum iterations =       100

  ==> CPHFRHamiltonian (by Rob Parrish) <== 

  ==> MemDFJK: Density-Fitted J/K Matrices <==

    J tasked:                   Yes
    K tasked:                   Yes
    wK tasked:                   No
    OpenMP threads:               8
    Memory [MiB]:             22888
    Algorithm:                 Disk
    Schwarz Cutoff:           1E-12
    Mask sparsity (%):       5.3276
    Fitting Condition:        1E-10

   => Auxiliary Basis Set <=

  Basis Set: (AUG-CC-PVTZ AUX)
    Blend: AUG-CC-PVTZ-JKFIT
    Number of shells: 456
    Number of basis function: 1558
    Number of Cartesian functions: 1936
    Spherical Harmonics?: true
    Max angular momentum: 4

  ==> CPHF Iterations <==

  => Iterations <=

             Iter  Converged  Remaining    Residual
  CGR           1          0          1   1.093E-01
  CGR           2          0          1   2.859E-02
  CGR           3          0          1   1.130E-02
  CGR           4          0          1   3.774E-03
  CGR           5          0          1   1.654E-03
  CGR           6          0          1   8.068E-04
  CGR           7          0          1   3.493E-04
  CGR           8          0          1   1.529E-04
  CGR           9          0          1   6.348E-05
  CGR          10          0          1   2.512E-05
  CGR          11          0          1   7.601E-06
  CGR          12          0          1   1.936E-06
  CGR          13          1          0   7.994E-07

    CGRSolver converged.

	-----------------------------------------------------------
	 ==================> DF-MP2 Energies <==================== 
	-----------------------------------------------------------
	 Reference Energy          =    -495.9972199755109159 [Eh]
	 Singles Energy            =      -0.0000000000000000 [Eh]
	 Same-Spin Energy          =      -0.5330136730910372 [Eh]
	 Opposite-Spin Energy      =      -1.6355118303599356 [Eh]
	 Correlation Energy        =      -2.1685255034509727 [Eh]
	 Total Energy              =    -498.1657454789618669 [Eh]
	-----------------------------------------------------------
	 ================> DF-SCS-MP2 Energies <================== 
	-----------------------------------------------------------
	 SCS Same-Spin Scale       =       0.3333333333333333 [-]
	 SCS Opposite-Spin Scale   =       1.2000000000000000 [-]
	 SCS Same-Spin Energy      =      -0.1776712243636790 [Eh]
	 SCS Opposite-Spin Energy  =      -1.9626141964319226 [Eh]
	 SCS Correlation Energy    =      -2.1402854207956015 [Eh]
	 SCS Total Energy          =    -498.1375053963064943 [Eh]
	-----------------------------------------------------------



Properties will be evaluated at  -0.000000,  -0.000000,  -0.000000 [a0]

Properties computed using the MP2 density matrix

  Nuclear Dipole Moment: [e a0]
     X:     6.4261      Y:     4.1964      Z:     2.8771

  Electronic Dipole Moment: [e a0]
     X:    -3.0886      Y:    -3.6486      Z:    -1.7089

  Dipole Moment: [e a0]
     X:     3.3375      Y:     0.5478      Z:     1.1682     Total:     3.5782

  Dipole Moment: [D]
     X:     8.4831      Y:     1.3924      Z:     2.9693     Total:     9.0949


*** tstop() called on node142.bme.utexas.edu at Sat Mar 27 18:28:33 2021
Module time:
	user time   =    1507.28 seconds =      25.12 minutes
	system time =      87.97 seconds =       1.47 minutes
	total time  =        262 seconds =       4.37 minutes
Total time:
	user time   =    1975.33 seconds =      32.92 minutes
	system time =     150.46 seconds =       2.51 minutes
	total time  =        369 seconds =       6.15 minutes

    Psi4 stopped on: Saturday, 27 March 2021 06:28PM
    Psi4 wall time for execution: 0:06:09.89

*** Psi4 exiting successfully. Buy a developer a beer!
