
    -----------------------------------------------------------------------
          Psi4: An Open-Source Ab Initio Electronic Structure Package
                               Psi4 1.4a3.dev225 

                         Git: Rev {master} 7105e37 


    D. G. A. Smith, L. A. Burns, A. C. Simmonett, R. M. Parrish,
    M. C. Schieber, R. Galvelis, P. Kraus, H. Kruse, R. Di Remigio,
    A. Alenaizan, A. M. James, S. Lehtola, J. P. Misiewicz, M. Scheurer,
    R. A. Shaw, J. B. Schriber, Y. Xie, Z. L. Glick, D. A. Sirianni,
    J. S. O'Brien, J. M. Waldrop, A. Kumar, E. G. Hohenstein,
    B. P. Pritchard, B. R. Brooks, H. F. Schaefer III, A. Yu. Sokolov,
    K. Patkowski, A. E. DePrince III, U. Bozkaya, R. A. King,
    F. A. Evangelista, J. M. Turney, T. D. Crawford, C. D. Sherrill,
    J. Chem. Phys. 152(18) 184108 (2020). https://doi.org/10.1063/5.0006002

                            Additional Code Authors
    E. T. Seidl, C. L. Janssen, E. F. Valeev, M. L. Leininger,
    J. F. Gonthier, R. M. Richard, H. R. McAlexander, M. Saitow, X. Wang,
    P. Verma, and M. H. Lechner

             Previous Authors, Complete List of Code Contributors,
                       and Citations for Specific Modules
    https://github.com/psi4/psi4/blob/master/codemeta.json
    https://github.com/psi4/psi4/graphs/contributors
    http://psicode.org/psi4manual/master/introduction.html#citing-psifour

    -----------------------------------------------------------------------


    Psi4 started on: Saturday, 06 March 2021 08:59AM

    Process ID: 190775
    Host:       c459-073.stampede2.tacc.utexas.edu
    PSIDATADIR: /home1/07844/xy3866/miniconda3/envs/p4env/share/psi4
    Memory:     500.0 MiB
    Threads:    32
    
  ==> Input File <==

--------------------------------------------------------------------------
#psi4
#
memory 32 gb

molecule  {
0 1
  O       -1.8591386     0.1518084    -0.0030502
  C        0.9797650    -0.0480790     0.0033120
  C       -1.2654920    -1.1739550     0.0157300
  C        0.2371350    -1.1840010    -0.0022480
  C        0.2779850     1.2351350     0.0170580
  C        2.4810890    -0.0479420    -0.0086670
  C       -1.0722470     1.2493700    -0.0013870
  H       -1.6715710    -1.7194360    -0.8464940
  H       -1.6521540    -1.6671500     0.9188080
  H        0.7071820    -2.1662500    -0.0128270
  H        0.8222450     2.1733070     0.0302890
  H        2.8758370     0.4671910     0.8740370
  H        2.8626870     0.4795000    -0.8898540
  H        2.8779460    -1.0666660    -0.0186730
  H       -1.6754580     2.1523000    -0.0063760
units angstrom
no_reorient  #important for SAPT in psi4, default
symmetry c1  #important for SAPT in psi4, default
}

set PROPERTIES_ORIGIN ["COM"]
properties('MP2/aug-cc-pvtz', properties = ['dipole'])
--------------------------------------------------------------------------

  Memory set to  29.802 GiB by Python driver.
    SCF Algorithm Type (re)set to DF.

*** tstart() called on c459-073.stampede2.tacc.utexas.edu
*** at Sat Mar  6 08:59:15 2021

   => Loading Basis Set <=

    Name: AUG-CC-PVTZ
    Role: ORBITAL
    Keyword: BASIS
    atoms 1    entry O          line   331 file /home1/07844/xy3866/miniconda3/envs/p4env/share/psi4/basis/aug-cc-pvtz.gbs 
    atoms 2-7  entry C          line   239 file /home1/07844/xy3866/miniconda3/envs/p4env/share/psi4/basis/aug-cc-pvtz.gbs 
    atoms 8-15 entry H          line    40 file /home1/07844/xy3866/miniconda3/envs/p4env/share/psi4/basis/aug-cc-pvtz.gbs 


         ---------------------------------------------------------
                                   SCF
               by Justin Turney, Rob Parrish, Andy Simmonett
                          and Daniel G. A. Smith
                              RHF Reference
                       32 Threads,  30517 MiB Core
         ---------------------------------------------------------

  ==> Geometry <==

    Molecular point group: c1
    Full point group: C1

    Geometry (in Angstrom), charge = 0, multiplicity = 1:

       Center              X                  Y                   Z               Mass       
    ------------   -----------------  -----------------  -----------------  -----------------
         O           -1.808221647003     0.136851189378    -0.006028426473    15.994914619570
         C            1.030681952997    -0.063036210622     0.000333773527    12.000000000000
         C           -1.214575047003    -1.188912210622     0.012751773527    12.000000000000
         C            0.288051952997    -1.198958210622    -0.005226226473    12.000000000000
         C            0.328901952997     1.220177789378     0.014079773527    12.000000000000
         C            2.532005952997    -0.062899210622    -0.011645226473    12.000000000000
         C           -1.021330047003     1.234412789378    -0.004365226473    12.000000000000
         H           -1.620654047003    -1.734393210622    -0.849472226473     1.007825032230
         H           -1.601237047003    -1.682107210622     0.915829773527     1.007825032230
         H            0.758098952997    -2.181207210622    -0.015805226473     1.007825032230
         H            0.873161952997     2.158349789378     0.027310773527     1.007825032230
         H            2.926753952997     0.452233789378     0.871058773527     1.007825032230
         H            2.913603952997     0.464542789378    -0.892832226473     1.007825032230
         H            2.928862952997    -1.081623210622    -0.021651226473     1.007825032230
         H           -1.624541047003     2.137342789378    -0.009354226473     1.007825032230

  Running in c1 symmetry.

  Rotational constants: A =      0.17661  B =      0.07924  C =      0.05584 [cm^-1]
  Rotational constants: A =   5294.56589  B =   2375.49071  C =   1673.97800 [MHz]
  Nuclear repulsion =  288.876600625246340

  Charge       = 0
  Multiplicity = 1
  Electrons    = 52
  Nalpha       = 26
  Nbeta        = 26

  ==> Algorithm <==

  SCF Algorithm Type is DF.
  DIIS enabled.
  MOM disabled.
  Fractional occupation disabled.
  Guess Type is SAD.
  Energy threshold   = 1.00e-10
  Density threshold  = 1.00e-10
  Integral threshold = 1.00e-12

  ==> Primary Basis <==

  Basis Set: AUG-CC-PVTZ
    Blend: AUG-CC-PVTZ
    Number of shells: 170
    Number of basis functions: 506
    Number of Cartesian functions: 585
    Spherical Harmonics?: true
    Max angular momentum: 3

   => Loading Basis Set <=

    Name: (AUG-CC-PVTZ AUX)
    Role: JKFIT
    Keyword: DF_BASIS_SCF
    atoms 1    entry O          line   286 file /home1/07844/xy3866/miniconda3/envs/p4env/share/psi4/basis/aug-cc-pvtz-jkfit.gbs 
    atoms 2-7  entry C          line   162 file /home1/07844/xy3866/miniconda3/envs/p4env/share/psi4/basis/aug-cc-pvtz-jkfit.gbs 
    atoms 8-15 entry H          line    70 file /home1/07844/xy3866/miniconda3/envs/p4env/share/psi4/basis/aug-cc-pvtz-jkfit.gbs 

  ==> Integral Setup <==

  DFHelper Memory: AOs need 2.120 GiB; user supplied 22.352 GiB. Using in-core AOs.

  ==> MemDFJK: Density-Fitted J/K Matrices <==

    J tasked:                   Yes
    K tasked:                   Yes
    wK tasked:                   No
    OpenMP threads:              32
    Memory [MiB]:             22888
    Algorithm:                 Core
    Schwarz Cutoff:           1E-12
    Mask sparsity (%):       4.4205
    Fitting Condition:        1E-10

   => Auxiliary Basis Set <=

  Basis Set: (AUG-CC-PVTZ AUX)
    Blend: AUG-CC-PVTZ-JKFIT
    Number of shells: 322
    Number of basis functions: 1096
    Number of Cartesian functions: 1357
    Spherical Harmonics?: true
    Max angular momentum: 4

  Minimum eigenvalue in the overlap matrix is 2.5986877809E-06.
  Reciprocal condition number of the overlap matrix is 1.4585591831E-07.
    Using symmetric orthogonalization.

  ==> Pre-Iterations <==

  SCF Guess: Superposition of Atomic Densities via on-the-fly atomic UHF (no occupation information).

   -------------------------
    Irrep   Nso     Nmo    
   -------------------------
     A        506     506 
   -------------------------
    Total     506     506
   -------------------------

  ==> Iterations <==

                           Total Energy        Delta E     RMS |[F,P]|

   @DF-RHF iter SAD:  -306.09342352818061   -3.06093e+02   0.00000e+00 
   @DF-RHF iter   1:  -306.56969679661535   -4.76273e-01   1.17039e-03 DIIS
   @DF-RHF iter   2:  -306.74817085003150   -1.78474e-01   5.47421e-04 DIIS
   @DF-RHF iter   3:  -306.78676063385217   -3.85898e-02   1.29127e-04 DIIS
   @DF-RHF iter   4:  -306.78988165894401   -3.12103e-03   5.02056e-05 DIIS
   @DF-RHF iter   5:  -306.79027476370612   -3.93105e-04   1.07277e-05 DIIS
   @DF-RHF iter   6:  -306.79029982100133   -2.50573e-05   3.89985e-06 DIIS
   @DF-RHF iter   7:  -306.79030367451384   -3.85351e-06   1.36142e-06 DIIS
   @DF-RHF iter   8:  -306.79030433162882   -6.57115e-07   5.80795e-07 DIIS
   @DF-RHF iter   9:  -306.79030447981461   -1.48186e-07   2.30211e-07 DIIS
   @DF-RHF iter  10:  -306.79030450570627   -2.58917e-08   1.06554e-07 DIIS
   @DF-RHF iter  11:  -306.79030451228994   -6.58366e-09   3.48633e-08 DIIS
   @DF-RHF iter  12:  -306.79030451312644   -8.36508e-10   1.98442e-08 DIIS
   @DF-RHF iter  13:  -306.79030451327628   -1.49839e-10   4.74683e-09 DIIS
   @DF-RHF iter  14:  -306.79030451328612   -9.83391e-12   1.19592e-09 DIIS
   @DF-RHF iter  15:  -306.79030451328640   -2.84217e-13   4.14341e-10 DIIS
   @DF-RHF iter  16:  -306.79030451328680   -3.97904e-13   1.66534e-10 DIIS
   @DF-RHF iter  17:  -306.79030451328657    2.27374e-13   5.95809e-11 DIIS
  Energy and wave function converged.


  ==> Post-Iterations <==

    Orbital Energies [Eh]
    ---------------------

    Doubly Occupied:                                                      

       1A    -20.584139     2A    -11.299632     3A    -11.292883  
       4A    -11.246567     5A    -11.225768     6A    -11.225653  
       7A    -11.216238     8A     -1.403932     9A     -1.105323  
      10A     -1.035801    11A     -0.971538    12A     -0.877031  
      13A     -0.827140    14A     -0.695591    15A     -0.674700  
      16A     -0.657400    17A     -0.651408    18A     -0.586963  
      19A     -0.572505    20A     -0.557468    21A     -0.551949  
      22A     -0.513604    23A     -0.504362    24A     -0.468146  
      25A     -0.409132    26A     -0.284321  

    Virtual:                                                              

      27A      0.029634    28A      0.034091    29A      0.035211  
      30A      0.042717    31A      0.049936    32A      0.051778  
      33A      0.056533    34A      0.073401    35A      0.084566  
      36A      0.098355    37A      0.100560    38A      0.101953  
      39A      0.112671    40A      0.116002    41A      0.120604  
      42A      0.128234    43A      0.131784    44A      0.135451  
      45A      0.137917    46A      0.140361    47A      0.143294  
      48A      0.147091    49A      0.151915    50A      0.153558  
      51A      0.162374    52A      0.167486    53A      0.181671  
      54A      0.186901    55A      0.202380    56A      0.219091  
      57A      0.223960    58A      0.237299    59A      0.243778  
      60A      0.248232    61A      0.251806    62A      0.258064  
      63A      0.260301    64A      0.271736    65A      0.280107  
      66A      0.284028    67A      0.288971    68A      0.295412  
      69A      0.303173    70A      0.311965    71A      0.320373  
      72A      0.329420    73A      0.338758    74A      0.347164  
      75A      0.349020    76A      0.353193    77A      0.354984  
      78A      0.365690    79A      0.371464    80A      0.375780  
      81A      0.380078    82A      0.385334    83A      0.390429  
      84A      0.391121    85A      0.393993    86A      0.402292  
      87A      0.412703    88A      0.414944    89A      0.415711  
      90A      0.425309    91A      0.438637    92A      0.441337  
      93A      0.443881    94A      0.450848    95A      0.461350  
      96A      0.465317    97A      0.472386    98A      0.473808  
      99A      0.485872   100A      0.495835   101A      0.499900  
     102A      0.501340   103A      0.508072   104A      0.517282  
     105A      0.520526   106A      0.525648   107A      0.529023  
     108A      0.530778   109A      0.538057   110A      0.539048  
     111A      0.546129   112A      0.550126   113A      0.561626  
     114A      0.567252   115A      0.575367   116A      0.579669  
     117A      0.589324   118A      0.595557   119A      0.609919  
     120A      0.612748   121A      0.624340   122A      0.632795  
     123A      0.651087   124A      0.656808   125A      0.675703  
     126A      0.679401   127A      0.683355   128A      0.709649  
     129A      0.713360   130A      0.732395   131A      0.746061  
     132A      0.752936   133A      0.777284   134A      0.780675  
     135A      0.787881   136A      0.790939   137A      0.805144  
     138A      0.811781   139A      0.829515   140A      0.840566  
     141A      0.841314   142A      0.845029   143A      0.848827  
     144A      0.858661   145A      0.862084   146A      0.877365  
     147A      0.883847   148A      0.889841   149A      0.891878  
     150A      0.903456   151A      0.906234   152A      0.916314  
     153A      0.916702   154A      0.926317   155A      0.939102  
     156A      0.949891   157A      0.958954   158A      0.961242  
     159A      0.963426   160A      0.968554   161A      0.976892  
     162A      0.989479   163A      0.996707   164A      1.001502  
     165A      1.017952   166A      1.019312   167A      1.028859  
     168A      1.037046   169A      1.041540   170A      1.059046  
     171A      1.061078   172A      1.068536   173A      1.070627  
     174A      1.074107   175A      1.083529   176A      1.095809  
     177A      1.104612   178A      1.110762   179A      1.112011  
     180A      1.118673   181A      1.126943   182A      1.130133  
     183A      1.132161   184A      1.139803   185A      1.143868  
     186A      1.164486   187A      1.166673   188A      1.179213  
     189A      1.190964   190A      1.198580   191A      1.209454  
     192A      1.216457   193A      1.222858   194A      1.227476  
     195A      1.231899   196A      1.237913   197A      1.243448  
     198A      1.258967   199A      1.269356   200A      1.273725  
     201A      1.283959   202A      1.286128   203A      1.301470  
     204A      1.308654   205A      1.314577   206A      1.327879  
     207A      1.349633   208A      1.363304   209A      1.366143  
     210A      1.393240   211A      1.414067   212A      1.418355  
     213A      1.428794   214A      1.438296   215A      1.447562  
     216A      1.450235   217A      1.475824   218A      1.486541  
     219A      1.503156   220A      1.514670   221A      1.524191  
     222A      1.533086   223A      1.555369   224A      1.566866  
     225A      1.577627   226A      1.579037   227A      1.600527  
     228A      1.622735   229A      1.629510   230A      1.635298  
     231A      1.636856   232A      1.646744   233A      1.671746  
     234A      1.674526   235A      1.677221   236A      1.690724  
     237A      1.698050   238A      1.708266   239A      1.712713  
     240A      1.742475   241A      1.745556   242A      1.753061  
     243A      1.762496   244A      1.766224   245A      1.771557  
     246A      1.778918   247A      1.794699   248A      1.807418  
     249A      1.825346   250A      1.840956   251A      1.868868  
     252A      1.877210   253A      1.886872   254A      1.891757  
     255A      1.910556   256A      1.916285   257A      1.924933  
     258A      1.934472   259A      1.940690   260A      1.947147  
     261A      1.964439   262A      1.985257   263A      2.003125  
     264A      2.004770   265A      2.021982   266A      2.040541  
     267A      2.043192   268A      2.059337   269A      2.074408  
     270A      2.091496   271A      2.102515   272A      2.111758  
     273A      2.123020   274A      2.127479   275A      2.138470  
     276A      2.152904   277A      2.181414   278A      2.186193  
     279A      2.197636   280A      2.223041   281A      2.231633  
     282A      2.243025   283A      2.246125   284A      2.261258  
     285A      2.283478   286A      2.296846   287A      2.315398  
     288A      2.322508   289A      2.344426   290A      2.348426  
     291A      2.365416   292A      2.395875   293A      2.406315  
     294A      2.430991   295A      2.464153   296A      2.491617  
     297A      2.500072   298A      2.509021   299A      2.565338  
     300A      2.583355   301A      2.585409   302A      2.613207  
     303A      2.641867   304A      2.648144   305A      2.680975  
     306A      2.740539   307A      2.761954   308A      2.812814  
     309A      2.829130   310A      2.876825   311A      2.880695  
     312A      2.907792   313A      2.998236   314A      3.037961  
     315A      3.045133   316A      3.063027   317A      3.109860  
     318A      3.167002   319A      3.172565   320A      3.178823  
     321A      3.242676   322A      3.247768   323A      3.254807  
     324A      3.260081   325A      3.282479   326A      3.307885  
     327A      3.369410   328A      3.392483   329A      3.396734  
     330A      3.415191   331A      3.429491   332A      3.444941  
     333A      3.472968   334A      3.476693   335A      3.504316  
     336A      3.511160   337A      3.518808   338A      3.529201  
     339A      3.539368   340A      3.544090   341A      3.568927  
     342A      3.577376   343A      3.592787   344A      3.597365  
     345A      3.609000   346A      3.619258   347A      3.647808  
     348A      3.666927   349A      3.672477   350A      3.699179  
     351A      3.705962   352A      3.721676   353A      3.723625  
     354A      3.736613   355A      3.766272   356A      3.779649  
     357A      3.785866   358A      3.817638   359A      3.826587  
     360A      3.855063   361A      3.859582   362A      3.871453  
     363A      3.883336   364A      3.894418   365A      3.908634  
     366A      3.938442   367A      3.939470   368A      3.951755  
     369A      3.961675   370A      3.971189   371A      3.989832  
     372A      3.999914   373A      4.006872   374A      4.039232  
     375A      4.040313   376A      4.067958   377A      4.093744  
     378A      4.094500   379A      4.107020   380A      4.119407  
     381A      4.130944   382A      4.144819   383A      4.147977  
     384A      4.158788   385A      4.161114   386A      4.167592  
     387A      4.202711   388A      4.219250   389A      4.233639  
     390A      4.240692   391A      4.278705   392A      4.292665  
     393A      4.313984   394A      4.342349   395A      4.353824  
     396A      4.374604   397A      4.381939   398A      4.398593  
     399A      4.400787   400A      4.410420   401A      4.420820  
     402A      4.436717   403A      4.447894   404A      4.459390  
     405A      4.471191   406A      4.491307   407A      4.503799  
     408A      4.505623   409A      4.514782   410A      4.556558  
     411A      4.595461   412A      4.608771   413A      4.632960  
     414A      4.645505   415A      4.679434   416A      4.714062  
     417A      4.732438   418A      4.739799   419A      4.765673  
     420A      4.797766   421A      4.805414   422A      4.815445  
     423A      4.849334   424A      4.870424   425A      4.900407  
     426A      4.907186   427A      4.923516   428A      4.941600  
     429A      4.955099   430A      4.965542   431A      5.006213  
     432A      5.029987   433A      5.050365   434A      5.089465  
     435A      5.110605   436A      5.116339   437A      5.133884  
     438A      5.141609   439A      5.159145   440A      5.173680  
     441A      5.207895   442A      5.223218   443A      5.242598  
     444A      5.260767   445A      5.273518   446A      5.287014  
     447A      5.291053   448A      5.340564   449A      5.351111  
     450A      5.431417   451A      5.442348   452A      5.448537  
     453A      5.459444   454A      5.494912   455A      5.528479  
     456A      5.546202   457A      5.587600   458A      5.626352  
     459A      5.635834   460A      5.668463   461A      5.673484  
     462A      5.682840   463A      5.728887   464A      5.762660  
     465A      5.784751   466A      5.835890   467A      5.894464  
     468A      5.925736   469A      5.987561   470A      6.029478  
     471A      6.046316   472A      6.086157   473A      6.167331  
     474A      6.173604   475A      6.218826   476A      6.296896  
     477A      6.337978   478A      6.390832   479A      6.420945  
     480A      6.550002   481A      6.654933   482A      6.728354  
     483A      6.766236   484A      6.776037   485A      6.790580  
     486A      6.825514   487A      6.930559   488A      6.950716  
     489A      7.002877   490A      7.081024   491A      7.289656  
     492A      7.404040   493A      7.485643   494A      7.493485  
     495A      7.769146   496A      7.802509   497A      7.943720  
     498A      8.307842   499A      8.496525   500A     15.213908  
     501A     16.828363   502A     17.569030   503A     17.867180  
     504A     18.927265   505A     19.736421   506A     20.015127  

    Final Occupation by Irrep:
              A 
    DOCC [    26 ]

  @DF-RHF Final Energy:  -306.79030451328657

   => Energetics <=

    Nuclear Repulsion Energy =            288.8766006252463399
    One-Electron Energy =                -988.4554227952286283
    Two-Electron Energy =                 392.7885176566956602
    Total Energy =                       -306.7903045132865714

Computation Completed

*** tstop() called on c459-073.stampede2.tacc.utexas.edu at Sat Mar  6 08:59:36 2021
Module time:
	user time   =     332.74 seconds =       5.55 minutes
	system time =      23.95 seconds =       0.40 minutes
	total time  =         21 seconds =       0.35 minutes
Total time:
	user time   =     332.74 seconds =       5.55 minutes
	system time =      23.95 seconds =       0.40 minutes
	total time  =         21 seconds =       0.35 minutes
   => Loading Basis Set <=

    Name: (AUG-CC-PVTZ AUX)
    Role: RIFIT
    Keyword: DF_BASIS_MP2
    atoms 1    entry O          line   264 file /home1/07844/xy3866/miniconda3/envs/p4env/share/psi4/basis/aug-cc-pvtz-ri.gbs 
    atoms 2-7  entry C          line   148 file /home1/07844/xy3866/miniconda3/envs/p4env/share/psi4/basis/aug-cc-pvtz-ri.gbs 
    atoms 8-15 entry H          line    30 file /home1/07844/xy3866/miniconda3/envs/p4env/share/psi4/basis/aug-cc-pvtz-ri.gbs 


*** tstart() called on c459-073.stampede2.tacc.utexas.edu
*** at Sat Mar  6 08:59:37 2021


  //>>>>>>>>>>>>>>>>>>>>>>>>>>>>>>>>>>>//
  //               DFMP2               //
  //<<<<<<<<<<<<<<<<<<<<<<<<<<<<<<<<<<<//

	 --------------------------------------------------------
	                          DF-MP2                         
	      2nd-Order Density-Fitted Moller-Plesset Theory     
	              RMP2 Wavefunction,  32 Threads             
	                                                         
	        Rob Parrish, Justin Turney, Andy Simmonett,      
	           Ed Hohenstein, and C. David Sherrill          
	 --------------------------------------------------------

   => Auxiliary Basis Set <=

  Basis Set: (AUG-CC-PVTZ AUX)
    Blend: AUG-CC-PVTZ-RI
    Number of shells: 308
    Number of basis functions: 1110
    Number of Cartesian functions: 1392
    Spherical Harmonics?: true
    Max angular momentum: 4

	 --------------------------------------------------------
	                 NBF =   506, NAUX =  1110
	 --------------------------------------------------------
	   CLASS    FOCC     OCC    AOCC    AVIR     VIR    FVIR
	   PAIRS       0      26      26     480     480       0
	 --------------------------------------------------------

  DFHelper Memory: AOs need 2.158 GiB; user supplied 22.352 GiB. Using in-core AOs.


         ------------------------------------------------------------
                                     CPHF                           
                                  Rob Parrish                       
         ------------------------------------------------------------

  ==> Geometry <==

    Molecular point group: c1
    Full point group: C1

    Geometry (in Angstrom), charge = 0, multiplicity = 1:

       Center              X                  Y                   Z               Mass       
    ------------   -----------------  -----------------  -----------------  -----------------
         O           -1.808221647003     0.136851189378    -0.006028426473    15.994914619570
         C            1.030681952997    -0.063036210622     0.000333773527    12.000000000000
         C           -1.214575047003    -1.188912210622     0.012751773527    12.000000000000
         C            0.288051952997    -1.198958210622    -0.005226226473    12.000000000000
         C            0.328901952997     1.220177789378     0.014079773527    12.000000000000
         C            2.532005952997    -0.062899210622    -0.011645226473    12.000000000000
         C           -1.021330047003     1.234412789378    -0.004365226473    12.000000000000
         H           -1.620654047003    -1.734393210622    -0.849472226473     1.007825032230
         H           -1.601237047003    -1.682107210622     0.915829773527     1.007825032230
         H            0.758098952997    -2.181207210622    -0.015805226473     1.007825032230
         H            0.873161952997     2.158349789378     0.027310773527     1.007825032230
         H            2.926753952997     0.452233789378     0.871058773527     1.007825032230
         H            2.913603952997     0.464542789378    -0.892832226473     1.007825032230
         H            2.928862952997    -1.081623210622    -0.021651226473     1.007825032230
         H           -1.624541047003     2.137342789378    -0.009354226473     1.007825032230

  Nuclear repulsion =  288.876600625246340
  Reference energy  = -306.790304513286571

  ==> Basis Set <==

  Basis Set: AUG-CC-PVTZ
    Blend: AUG-CC-PVTZ
    Number of shells: 170
    Number of basis functions: 506
    Number of Cartesian functions: 585
    Spherical Harmonics?: true
    Max angular momentum: 3

  ==> CGRSolver (by Rob Parrish) <==

   Number of roots    =         1
   Preconditioning    =    JACOBI
   Convergence cutoff =     1E-06
   Maximum iterations =       100

  ==> CPHFRHamiltonian (by Rob Parrish) <== 

  ==> MemDFJK: Density-Fitted J/K Matrices <==

    J tasked:                   Yes
    K tasked:                   Yes
    wK tasked:                   No
    OpenMP threads:              32
    Memory [MiB]:             22888
    Algorithm:                 Core
    Schwarz Cutoff:           1E-12
    Mask sparsity (%):       2.5910
    Fitting Condition:        1E-10

   => Auxiliary Basis Set <=

  Basis Set: (AUG-CC-PVTZ AUX)
    Blend: AUG-CC-PVTZ-JKFIT
    Number of shells: 322
    Number of basis functions: 1096
    Number of Cartesian functions: 1357
    Spherical Harmonics?: true
    Max angular momentum: 4

  ==> CPHF Iterations <==

  => Iterations <=

             Iter  Converged  Remaining    Residual
  CGR           1          0          1   1.014E-01
  CGR           2          0          1   2.828E-02
  CGR           3          0          1   1.186E-02
  CGR           4          0          1   3.784E-03
  CGR           5          0          1   1.529E-03
  CGR           6          0          1   7.752E-04
  CGR           7          0          1   3.090E-04
  CGR           8          0          1   1.136E-04
  CGR           9          0          1   3.899E-05
  CGR          10          0          1   1.079E-05
  CGR          11          0          1   3.610E-06
  CGR          12          0          1   1.045E-06
  CGR          13          1          0   2.690E-07

    CGRSolver converged.

	-----------------------------------------------------------
	 ==================> DF-MP2 Energies <==================== 
	-----------------------------------------------------------
	 Reference Energy          =    -306.7903045132865714 [Eh]
	 Singles Energy            =      -0.0000000000000000 [Eh]
	 Same-Spin Energy          =      -0.3155730634131178 [Eh]
	 Opposite-Spin Energy      =      -1.0403895329459139 [Eh]
	 Correlation Energy        =      -1.3559625963590316 [Eh]
	 Total Energy              =    -308.1462671096455779 [Eh]
	-----------------------------------------------------------
	 ================> DF-SCS-MP2 Energies <================== 
	-----------------------------------------------------------
	 SCS Same-Spin Scale       =       0.3333333333333333 [-]
	 SCS Opposite-Spin Scale   =       1.2000000000000000 [-]
	 SCS Same-Spin Energy      =      -0.1051910211377059 [Eh]
	 SCS Opposite-Spin Energy  =      -1.2484674395350965 [Eh]
	 SCS Correlation Energy    =      -1.3536584606728024 [Eh]
	 SCS Total Energy          =    -308.1439629739593897 [Eh]
	-----------------------------------------------------------



Properties will be evaluated at   0.000000,   0.000000,   0.000000 [a0]

Properties computed using the MP2 density matrix

  Nuclear Dipole Moment: [e a0]
     X:     5.1981      Y:    -1.3745      Z:     0.0235

  Electronic Dipole Moment: [e a0]
     X:    -4.8682      Y:     1.1566      Z:    -0.0184

  Dipole Moment: [e a0]
     X:     0.3299      Y:    -0.2179      Z:     0.0051     Total:     0.3954

  Dipole Moment: [D]
     X:     0.8386      Y:    -0.5537      Z:     0.0130     Total:     1.0050


*** tstop() called on c459-073.stampede2.tacc.utexas.edu at Sat Mar  6 09:01:22 2021
Module time:
	user time   =     832.13 seconds =      13.87 minutes
	system time =      32.66 seconds =       0.54 minutes
	total time  =        105 seconds =       1.75 minutes
Total time:
	user time   =    1165.67 seconds =      19.43 minutes
	system time =      56.63 seconds =       0.94 minutes
	total time  =        127 seconds =       2.12 minutes

    Psi4 stopped on: Saturday, 06 March 2021 09:01AM
    Psi4 wall time for execution: 0:02:07.39

*** Psi4 exiting successfully. Buy a developer a beer!
