
    -----------------------------------------------------------------------
          Psi4: An Open-Source Ab Initio Electronic Structure Package
                               Psi4 1.4a3.dev225 

                         Git: Rev {master} 7105e37 


    D. G. A. Smith, L. A. Burns, A. C. Simmonett, R. M. Parrish,
    M. C. Schieber, R. Galvelis, P. Kraus, H. Kruse, R. Di Remigio,
    A. Alenaizan, A. M. James, S. Lehtola, J. P. Misiewicz, M. Scheurer,
    R. A. Shaw, J. B. Schriber, Y. Xie, Z. L. Glick, D. A. Sirianni,
    J. S. O'Brien, J. M. Waldrop, A. Kumar, E. G. Hohenstein,
    B. P. Pritchard, B. R. Brooks, H. F. Schaefer III, A. Yu. Sokolov,
    K. Patkowski, A. E. DePrince III, U. Bozkaya, R. A. King,
    F. A. Evangelista, J. M. Turney, T. D. Crawford, C. D. Sherrill,
    J. Chem. Phys. 152(18) 184108 (2020). https://doi.org/10.1063/5.0006002

                            Additional Code Authors
    E. T. Seidl, C. L. Janssen, E. F. Valeev, M. L. Leininger,
    J. F. Gonthier, R. M. Richard, H. R. McAlexander, M. Saitow, X. Wang,
    P. Verma, and M. H. Lechner

             Previous Authors, Complete List of Code Contributors,
                       and Citations for Specific Modules
    https://github.com/psi4/psi4/blob/master/codemeta.json
    https://github.com/psi4/psi4/graphs/contributors
    http://psicode.org/psi4manual/master/introduction.html#citing-psifour

    -----------------------------------------------------------------------


    Psi4 started on: Thursday, 01 April 2021 06:15AM

    Process ID: 137787
    Host:       c465-113.stampede2.tacc.utexas.edu
    PSIDATADIR: /home1/07844/xy3866/miniconda3/envs/p4env/share/psi4
    Memory:     500.0 MiB
    Threads:    8
    
  ==> Input File <==

--------------------------------------------------------------------------
#psi4
#
memory 32 gb

molecule  {
0 1
  O       -1.8720150     0.1455040    -0.0239620
  C        0.9797650    -0.0480790     0.0033120
  C       -1.2654920    -1.1739550     0.0157300
  C        0.2371350    -1.1840010    -0.0022480
  C        0.2779850     1.2351350     0.0170580
  C        2.4810890    -0.0479420    -0.0086670
  C       -1.0722470     1.2493700    -0.0013870
  H       -1.6715710    -1.7194360    -0.8464940
  H       -1.6521540    -1.6671500     0.9188080
  H        0.7071820    -2.1662500    -0.0128270
  H        0.8222450     2.1733070     0.0302890
  H        2.8686310     0.4577874     0.8579235
  H        2.8626870     0.4795000    -0.8898540
  H        2.8779460    -1.0666660    -0.0186730
  H       -1.6754580     2.1523000    -0.0063760
units angstrom
no_reorient  #important for SAPT in psi4, default
symmetry c1  #important for SAPT in psi4, default
}

set PROPERTIES_ORIGIN ["COM"]
properties('MP2/aug-cc-pvtz', properties = ['dipole'])
--------------------------------------------------------------------------

  Memory set to  29.802 GiB by Python driver.
    SCF Algorithm Type (re)set to DF.

*** tstart() called on c465-113.stampede2.tacc.utexas.edu
*** at Thu Apr  1 06:15:23 2021

   => Loading Basis Set <=

    Name: AUG-CC-PVTZ
    Role: ORBITAL
    Keyword: BASIS
    atoms 1    entry O          line   331 file /home1/07844/xy3866/miniconda3/envs/p4env/share/psi4/basis/aug-cc-pvtz.gbs 
    atoms 2-7  entry C          line   239 file /home1/07844/xy3866/miniconda3/envs/p4env/share/psi4/basis/aug-cc-pvtz.gbs 
    atoms 8-15 entry H          line    40 file /home1/07844/xy3866/miniconda3/envs/p4env/share/psi4/basis/aug-cc-pvtz.gbs 


         ---------------------------------------------------------
                                   SCF
               by Justin Turney, Rob Parrish, Andy Simmonett
                          and Daniel G. A. Smith
                              RHF Reference
                        8 Threads,  30517 MiB Core
         ---------------------------------------------------------

  ==> Geometry <==

    Molecular point group: c1
    Full point group: C1

    Geometry (in Angstrom), charge = 0, multiplicity = 1:

       Center              X                  Y                   Z               Mass       
    ------------   -----------------  -----------------  -----------------  -----------------
         O           -1.818878342422     0.131695221371    -0.023289059309    15.994914619570
         C            1.032901657578    -0.061887778629     0.003984940691    12.000000000000
         C           -1.212355342422    -1.187763778629     0.016402940691    12.000000000000
         C            0.290271657578    -1.197809778629    -0.001575059309    12.000000000000
         C            0.331121657578     1.221326221371     0.017730940691    12.000000000000
         C            2.534225657578    -0.061750778629    -0.007994059309    12.000000000000
         C           -1.019110342422     1.235561221371    -0.000714059309    12.000000000000
         H           -1.618434342422    -1.733244778629    -0.845821059309     1.007825032230
         H           -1.599017342422    -1.680958778629     0.919480940691     1.007825032230
         H            0.760318657578    -2.180058778629    -0.012154059309     1.007825032230
         H            0.875381657578     2.159498221371     0.030961940691     1.007825032230
         H            2.921767657578     0.443978621371     0.858596440691     1.007825032230
         H            2.915823657578     0.465691221371    -0.889181059309     1.007825032230
         H            2.931082657578    -1.080474778629    -0.018000059309     1.007825032230
         H           -1.622321342422     2.138491221371    -0.005703059309     1.007825032230

  Running in c1 symmetry.

  Rotational constants: A =      0.17670  B =      0.07898  C =      0.05571 [cm^-1]
  Rotational constants: A =   5297.26598  B =   2367.89996  C =   1670.28203 [MHz]
  Nuclear repulsion =  288.619191036329028

  Charge       = 0
  Multiplicity = 1
  Electrons    = 52
  Nalpha       = 26
  Nbeta        = 26

  ==> Algorithm <==

  SCF Algorithm Type is DF.
  DIIS enabled.
  MOM disabled.
  Fractional occupation disabled.
  Guess Type is SAD.
  Energy threshold   = 1.00e-10
  Density threshold  = 1.00e-10
  Integral threshold = 1.00e-12

  ==> Primary Basis <==

  Basis Set: AUG-CC-PVTZ
    Blend: AUG-CC-PVTZ
    Number of shells: 170
    Number of basis functions: 506
    Number of Cartesian functions: 585
    Spherical Harmonics?: true
    Max angular momentum: 3

   => Loading Basis Set <=

    Name: (AUG-CC-PVTZ AUX)
    Role: JKFIT
    Keyword: DF_BASIS_SCF
    atoms 1    entry O          line   286 file /home1/07844/xy3866/miniconda3/envs/p4env/share/psi4/basis/aug-cc-pvtz-jkfit.gbs 
    atoms 2-7  entry C          line   162 file /home1/07844/xy3866/miniconda3/envs/p4env/share/psi4/basis/aug-cc-pvtz-jkfit.gbs 
    atoms 8-15 entry H          line    70 file /home1/07844/xy3866/miniconda3/envs/p4env/share/psi4/basis/aug-cc-pvtz-jkfit.gbs 

  ==> Integral Setup <==

  DFHelper Memory: AOs need 2.074 GiB; user supplied 22.352 GiB. Using in-core AOs.

  ==> MemDFJK: Density-Fitted J/K Matrices <==

    J tasked:                   Yes
    K tasked:                   Yes
    wK tasked:                   No
    OpenMP threads:               8
    Memory [MiB]:             22888
    Algorithm:                 Core
    Schwarz Cutoff:           1E-12
    Mask sparsity (%):       4.4205
    Fitting Condition:        1E-10

   => Auxiliary Basis Set <=

  Basis Set: (AUG-CC-PVTZ AUX)
    Blend: AUG-CC-PVTZ-JKFIT
    Number of shells: 322
    Number of basis functions: 1096
    Number of Cartesian functions: 1357
    Spherical Harmonics?: true
    Max angular momentum: 4

  Minimum eigenvalue in the overlap matrix is 2.6014890021E-06.
  Reciprocal condition number of the overlap matrix is 1.4598999146E-07.
    Using symmetric orthogonalization.

  ==> Pre-Iterations <==

  SCF Guess: Superposition of Atomic Densities via on-the-fly atomic UHF (no occupation information).

   -------------------------
    Irrep   Nso     Nmo    
   -------------------------
     A        506     506 
   -------------------------
    Total     506     506
   -------------------------

  ==> Iterations <==

                           Total Energy        Delta E     RMS |[F,P]|

   @DF-RHF iter SAD:  -306.07814069543730   -3.06078e+02   0.00000e+00 
   @DF-RHF iter   1:  -306.56982494150748   -4.91684e-01   1.16927e-03 DIIS
   @DF-RHF iter   2:  -306.74809428072382   -1.78269e-01   5.44463e-04 DIIS
   @DF-RHF iter   3:  -306.78620877280912   -3.81145e-02   1.29192e-04 DIIS
   @DF-RHF iter   4:  -306.78932970101175   -3.12093e-03   5.02440e-05 DIIS
   @DF-RHF iter   5:  -306.78972463515049   -3.94934e-04   1.07005e-05 DIIS
   @DF-RHF iter   6:  -306.78974982428832   -2.51891e-05   3.92025e-06 DIIS
   @DF-RHF iter   7:  -306.78975374304838   -3.91876e-06   1.38099e-06 DIIS
   @DF-RHF iter   8:  -306.78975441568934   -6.72641e-07   5.86769e-07 DIIS
   @DF-RHF iter   9:  -306.78975456548778   -1.49798e-07   2.32610e-07 DIIS
   @DF-RHF iter  10:  -306.78975459141623   -2.59284e-08   1.06256e-07 DIIS
   @DF-RHF iter  11:  -306.78975459795885   -6.54262e-09   3.52373e-08 DIIS
   @DF-RHF iter  12:  -306.78975459880809   -8.49241e-10   2.03657e-08 DIIS
   @DF-RHF iter  13:  -306.78975459896805   -1.59957e-10   4.81886e-09 DIIS
   @DF-RHF iter  14:  -306.78975459897850   -1.04592e-11   1.20696e-09 DIIS
   @DF-RHF iter  15:  -306.78975459897958   -1.08002e-12   4.15251e-10 DIIS
   @DF-RHF iter  16:  -306.78975459897936    2.27374e-13   1.67623e-10 DIIS
   @DF-RHF iter  17:  -306.78975459897987   -5.11591e-13   5.94232e-11 DIIS
  Energy and wave function converged.


  ==> Post-Iterations <==

    Orbital Energies [Eh]
    ---------------------

    Doubly Occupied:                                                      

       1A    -20.583822     2A    -11.300108     3A    -11.291756  
       4A    -11.246618     5A    -11.226273     6A    -11.223678  
       7A    -11.218200     8A     -1.398803     9A     -1.106102  
      10A     -1.034663    11A     -0.973243    12A     -0.876530  
      13A     -0.827485    14A     -0.694112    15A     -0.673507  
      16A     -0.657706    17A     -0.649709    18A     -0.586225  
      19A     -0.575449    20A     -0.557649    21A     -0.552750  
      22A     -0.511129    23A     -0.504146    24A     -0.469378  
      25A     -0.410402    26A     -0.285410  

    Virtual:                                                              

      27A      0.029554    28A      0.034065    29A      0.035218  
      30A      0.042688    31A      0.049939    32A      0.051741  
      33A      0.056533    34A      0.073370    35A      0.084575  
      36A      0.098637    37A      0.100719    38A      0.101506  
      39A      0.112673    40A      0.115937    41A      0.120614  
      42A      0.128058    43A      0.131595    44A      0.135424  
      45A      0.137864    46A      0.140081    47A      0.143321  
      48A      0.147208    49A      0.152019    50A      0.153359  
      51A      0.162275    52A      0.167483    53A      0.181636  
      54A      0.186851    55A      0.202497    56A      0.219060  
      57A      0.224374    58A      0.237415    59A      0.243788  
      60A      0.248505    61A      0.251852    62A      0.258048  
      63A      0.260308    64A      0.271785    65A      0.279634  
      66A      0.284174    67A      0.288886    68A      0.295261  
      69A      0.302518    70A      0.311746    71A      0.320380  
      72A      0.329461    73A      0.338924    74A      0.346993  
      75A      0.348848    76A      0.353456    77A      0.355838  
      78A      0.365625    79A      0.371748    80A      0.375958  
      81A      0.380274    82A      0.385402    83A      0.390070  
      84A      0.391052    85A      0.393938    86A      0.402137  
      87A      0.412760    88A      0.414959    89A      0.415259  
      90A      0.425004    91A      0.438444    92A      0.441076  
      93A      0.442416    94A      0.451502    95A      0.461277  
      96A      0.465377    97A      0.472397    98A      0.473748  
      99A      0.486029   100A      0.495926   101A      0.500544  
     102A      0.501155   103A      0.507780   104A      0.517221  
     105A      0.520505   106A      0.524920   107A      0.528932  
     108A      0.530389   109A      0.538502   110A      0.538996  
     111A      0.545883   112A      0.550351   113A      0.561628  
     114A      0.566519   115A      0.575564   116A      0.579831  
     117A      0.588787   118A      0.595577   119A      0.610338  
     120A      0.612729   121A      0.624571   122A      0.632785  
     123A      0.649879   124A      0.657244   125A      0.675383  
     126A      0.679642   127A      0.682978   128A      0.709927  
     129A      0.712563   130A      0.732303   131A      0.745771  
     132A      0.753721   133A      0.777949   134A      0.781182  
     135A      0.787968   136A      0.790032   137A      0.805028  
     138A      0.810956   139A      0.829835   140A      0.839570  
     141A      0.842421   142A      0.844890   143A      0.849509  
     144A      0.858409   145A      0.862084   146A      0.878085  
     147A      0.883545   148A      0.890003   149A      0.892181  
     150A      0.903332   151A      0.907059   152A      0.915583  
     153A      0.917976   154A      0.926131   155A      0.939613  
     156A      0.949910   157A      0.959911   158A      0.961207  
     159A      0.963529   160A      0.968623   161A      0.976803  
     162A      0.989633   163A      0.996514   164A      1.001734  
     165A      1.017213   166A      1.019732   167A      1.028915  
     168A      1.037238   169A      1.042398   170A      1.059016  
     171A      1.061023   172A      1.068190   173A      1.070382  
     174A      1.074884   175A      1.083374   176A      1.096154  
     177A      1.104560   178A      1.109961   179A      1.112999  
     180A      1.118732   181A      1.126641   182A      1.130069  
     183A      1.132169   184A      1.139126   185A      1.143362  
     186A      1.164336   187A      1.166036   188A      1.179263  
     189A      1.191266   190A      1.198302   191A      1.209547  
     192A      1.216091   193A      1.223102   194A      1.227869  
     195A      1.232206   196A      1.238102   197A      1.244273  
     198A      1.258456   199A      1.268915   200A      1.273756  
     201A      1.284570   202A      1.286839   203A      1.301518  
     204A      1.308804   205A      1.314677   206A      1.327747  
     207A      1.349720   208A      1.362604   209A      1.368242  
     210A      1.392870   211A      1.412344   212A      1.419350  
     213A      1.428467   214A      1.438369   215A      1.447890  
     216A      1.449801   217A      1.475588   218A      1.486358  
     219A      1.504257   220A      1.514113   221A      1.523750  
     222A      1.531954   223A      1.556767   224A      1.567306  
     225A      1.576878   226A      1.579766   227A      1.600977  
     228A      1.621886   229A      1.629103   230A      1.635180  
     231A      1.636971   232A      1.647002   233A      1.672382  
     234A      1.677170   235A      1.677512   236A      1.691121  
     237A      1.698901   238A      1.708291   239A      1.713954  
     240A      1.740612   241A      1.746705   242A      1.753476  
     243A      1.763190   244A      1.766358   245A      1.771803  
     246A      1.779057   247A      1.794587   248A      1.808403  
     249A      1.825192   250A      1.840626   251A      1.867334  
     252A      1.878746   253A      1.888426   254A      1.893213  
     255A      1.910032   256A      1.917068   257A      1.924668  
     258A      1.934291   259A      1.940431   260A      1.946490  
     261A      1.964903   262A      1.983806   263A      2.002881  
     264A      2.007935   265A      2.022792   266A      2.041385  
     267A      2.042758   268A      2.060244   269A      2.076567  
     270A      2.091695   271A      2.102174   272A      2.108640  
     273A      2.122295   274A      2.128039   275A      2.137820  
     276A      2.152062   277A      2.182095   278A      2.187015  
     279A      2.197746   280A      2.222858   281A      2.232445  
     282A      2.244376   283A      2.247680   284A      2.263768  
     285A      2.286852   286A      2.298026   287A      2.316171  
     288A      2.322882   289A      2.343692   290A      2.349694  
     291A      2.362565   292A      2.396123   293A      2.407216  
     294A      2.433696   295A      2.462988   296A      2.488823  
     297A      2.499218   298A      2.508270   299A      2.567900  
     300A      2.582197   301A      2.585932   302A      2.608637  
     303A      2.639984   304A      2.648898   305A      2.680103  
     306A      2.740862   307A      2.761812   308A      2.809227  
     309A      2.826520   310A      2.877632   311A      2.880995  
     312A      2.902616   313A      2.998217   314A      3.040301  
     315A      3.045759   316A      3.062965   317A      3.107775  
     318A      3.165925   319A      3.171025   320A      3.175481  
     321A      3.241383   322A      3.245217   323A      3.252990  
     324A      3.258169   325A      3.277566   326A      3.304455  
     327A      3.367693   328A      3.393413   329A      3.397286  
     330A      3.414378   331A      3.430884   332A      3.443952  
     333A      3.470910   334A      3.477280   335A      3.503646  
     336A      3.510610   337A      3.518203   338A      3.528247  
     339A      3.539070   340A      3.542401   341A      3.569888  
     342A      3.579917   343A      3.590633   344A      3.598852  
     345A      3.609388   346A      3.616471   347A      3.648894  
     348A      3.668377   349A      3.674610   350A      3.698652  
     351A      3.706701   352A      3.721860   353A      3.725768  
     354A      3.735715   355A      3.765644   356A      3.778429  
     357A      3.786133   358A      3.816587   359A      3.823689  
     360A      3.852939   361A      3.860379   362A      3.869683  
     363A      3.882602   364A      3.893584   365A      3.906988  
     366A      3.937719   367A      3.943205   368A      3.950540  
     369A      3.961561   370A      3.971983   371A      3.994270  
     372A      3.999013   373A      4.005999   374A      4.036747  
     375A      4.039115   376A      4.068625   377A      4.091425  
     378A      4.096507   379A      4.106380   380A      4.118888  
     381A      4.129439   382A      4.144587   383A      4.149779  
     384A      4.157303   385A      4.162073   386A      4.166713  
     387A      4.203607   388A      4.221789   389A      4.230429  
     390A      4.242446   391A      4.278244   392A      4.288779  
     393A      4.312205   394A      4.341204   395A      4.353898  
     396A      4.373855   397A      4.380616   398A      4.398336  
     399A      4.399755   400A      4.408899   401A      4.418413  
     402A      4.440490   403A      4.448865   404A      4.458780  
     405A      4.471770   406A      4.492633   407A      4.503662  
     408A      4.506138   409A      4.517202   410A      4.552791  
     411A      4.595472   412A      4.613079   413A      4.636194  
     414A      4.649788   415A      4.681654   416A      4.712127  
     417A      4.737592   418A      4.738826   419A      4.769033  
     420A      4.797101   421A      4.804980   422A      4.819079  
     423A      4.846229   424A      4.874257   425A      4.903886  
     426A      4.911210   427A      4.924872   428A      4.943811  
     429A      4.956135   430A      4.966315   431A      5.000255  
     432A      5.029527   433A      5.051398   434A      5.089983  
     435A      5.113466   436A      5.118880   437A      5.139470  
     438A      5.141691   439A      5.157194   440A      5.172583  
     441A      5.208028   442A      5.223834   443A      5.253767  
     444A      5.260989   445A      5.282057   446A      5.283289  
     447A      5.290453   448A      5.341233   449A      5.360189  
     450A      5.434981   451A      5.443118   452A      5.452373  
     453A      5.462722   454A      5.491035   455A      5.531747  
     456A      5.552399   457A      5.594031   458A      5.636160  
     459A      5.637550   460A      5.663505   461A      5.674112  
     462A      5.692133   463A      5.728542   464A      5.782909  
     465A      5.789124   466A      5.843343   467A      5.892844  
     468A      5.923152   469A      5.988261   470A      6.034150  
     471A      6.052368   472A      6.083475   473A      6.187084  
     474A      6.199920   475A      6.230572   476A      6.299789  
     477A      6.335535   478A      6.391253   479A      6.418181  
     480A      6.554476   481A      6.649363   482A      6.730356  
     483A      6.770264   484A      6.774289   485A      6.777849  
     486A      6.828223   487A      6.931813   488A      6.954605  
     489A      6.998328   490A      7.080087   491A      7.282611  
     492A      7.400661   493A      7.482747   494A      7.486350  
     495A      7.741177   496A      7.799011   497A      7.939177  
     498A      8.314555   499A      8.484028   500A     15.171068  
     501A     16.796907   502A     17.548097   503A     17.885815  
     504A     18.910097   505A     19.726348   506A     20.052230  

    Final Occupation by Irrep:
              A 
    DOCC [    26 ]

  @DF-RHF Final Energy:  -306.78975459897987

   => Energetics <=

    Nuclear Repulsion Energy =            288.6191910363290276
    One-Electron Energy =                -987.9481827717481792
    Two-Electron Energy =                 392.5392371364392261
    Total Energy =                       -306.7897545989798687

Computation Completed

*** tstop() called on c465-113.stampede2.tacc.utexas.edu at Thu Apr  1 06:15:54 2021
Module time:
	user time   =     177.19 seconds =       2.95 minutes
	system time =       6.08 seconds =       0.10 minutes
	total time  =         31 seconds =       0.52 minutes
Total time:
	user time   =     177.19 seconds =       2.95 minutes
	system time =       6.08 seconds =       0.10 minutes
	total time  =         31 seconds =       0.52 minutes
   => Loading Basis Set <=

    Name: (AUG-CC-PVTZ AUX)
    Role: RIFIT
    Keyword: DF_BASIS_MP2
    atoms 1    entry O          line   264 file /home1/07844/xy3866/miniconda3/envs/p4env/share/psi4/basis/aug-cc-pvtz-ri.gbs 
    atoms 2-7  entry C          line   148 file /home1/07844/xy3866/miniconda3/envs/p4env/share/psi4/basis/aug-cc-pvtz-ri.gbs 
    atoms 8-15 entry H          line    30 file /home1/07844/xy3866/miniconda3/envs/p4env/share/psi4/basis/aug-cc-pvtz-ri.gbs 


*** tstart() called on c465-113.stampede2.tacc.utexas.edu
*** at Thu Apr  1 06:15:55 2021


  //>>>>>>>>>>>>>>>>>>>>>>>>>>>>>>>>>>>//
  //               DFMP2               //
  //<<<<<<<<<<<<<<<<<<<<<<<<<<<<<<<<<<<//

	 --------------------------------------------------------
	                          DF-MP2                         
	      2nd-Order Density-Fitted Moller-Plesset Theory     
	              RMP2 Wavefunction,   8 Threads             
	                                                         
	        Rob Parrish, Justin Turney, Andy Simmonett,      
	           Ed Hohenstein, and C. David Sherrill          
	 --------------------------------------------------------

   => Auxiliary Basis Set <=

  Basis Set: (AUG-CC-PVTZ AUX)
    Blend: AUG-CC-PVTZ-RI
    Number of shells: 308
    Number of basis functions: 1110
    Number of Cartesian functions: 1392
    Spherical Harmonics?: true
    Max angular momentum: 4

	 --------------------------------------------------------
	                 NBF =   506, NAUX =  1110
	 --------------------------------------------------------
	   CLASS    FOCC     OCC    AOCC    AVIR     VIR    FVIR
	   PAIRS       0      26      26     480     480       0
	 --------------------------------------------------------

  DFHelper Memory: AOs need 2.112 GiB; user supplied 22.352 GiB. Using in-core AOs.


         ------------------------------------------------------------
                                     CPHF                           
                                  Rob Parrish                       
         ------------------------------------------------------------

  ==> Geometry <==

    Molecular point group: c1
    Full point group: C1

    Geometry (in Angstrom), charge = 0, multiplicity = 1:

       Center              X                  Y                   Z               Mass       
    ------------   -----------------  -----------------  -----------------  -----------------
         O           -1.818878342422     0.131695221371    -0.023289059309    15.994914619570
         C            1.032901657578    -0.061887778629     0.003984940691    12.000000000000
         C           -1.212355342422    -1.187763778629     0.016402940691    12.000000000000
         C            0.290271657578    -1.197809778629    -0.001575059309    12.000000000000
         C            0.331121657578     1.221326221371     0.017730940691    12.000000000000
         C            2.534225657578    -0.061750778629    -0.007994059309    12.000000000000
         C           -1.019110342422     1.235561221371    -0.000714059309    12.000000000000
         H           -1.618434342422    -1.733244778629    -0.845821059309     1.007825032230
         H           -1.599017342422    -1.680958778629     0.919480940691     1.007825032230
         H            0.760318657578    -2.180058778629    -0.012154059309     1.007825032230
         H            0.875381657578     2.159498221371     0.030961940691     1.007825032230
         H            2.921767657578     0.443978621371     0.858596440691     1.007825032230
         H            2.915823657578     0.465691221371    -0.889181059309     1.007825032230
         H            2.931082657578    -1.080474778629    -0.018000059309     1.007825032230
         H           -1.622321342422     2.138491221371    -0.005703059309     1.007825032230

  Nuclear repulsion =  288.619191036329028
  Reference energy  = -306.789754598979869

  ==> Basis Set <==

  Basis Set: AUG-CC-PVTZ
    Blend: AUG-CC-PVTZ
    Number of shells: 170
    Number of basis functions: 506
    Number of Cartesian functions: 585
    Spherical Harmonics?: true
    Max angular momentum: 3

  ==> CGRSolver (by Rob Parrish) <==

   Number of roots    =         1
   Preconditioning    =    JACOBI
   Convergence cutoff =     1E-06
   Maximum iterations =       100

  ==> CPHFRHamiltonian (by Rob Parrish) <== 

  ==> MemDFJK: Density-Fitted J/K Matrices <==

    J tasked:                   Yes
    K tasked:                   Yes
    wK tasked:                   No
    OpenMP threads:               8
    Memory [MiB]:             22888
    Algorithm:                 Core
    Schwarz Cutoff:           1E-12
    Mask sparsity (%):       2.5895
    Fitting Condition:        1E-10

   => Auxiliary Basis Set <=

  Basis Set: (AUG-CC-PVTZ AUX)
    Blend: AUG-CC-PVTZ-JKFIT
    Number of shells: 322
    Number of basis functions: 1096
    Number of Cartesian functions: 1357
    Spherical Harmonics?: true
    Max angular momentum: 4

  ==> CPHF Iterations <==

  => Iterations <=

             Iter  Converged  Remaining    Residual
  CGR           1          0          1   1.018E-01
  CGR           2          0          1   2.836E-02
  CGR           3          0          1   1.179E-02
  CGR           4          0          1   3.722E-03
  CGR           5          0          1   1.452E-03
  CGR           6          0          1   7.285E-04
  CGR           7          0          1   3.004E-04
  CGR           8          0          1   1.143E-04
  CGR           9          0          1   3.953E-05
  CGR          10          0          1   1.110E-05
  CGR          11          0          1   3.779E-06
  CGR          12          0          1   1.049E-06
  CGR          13          1          0   2.717E-07

    CGRSolver converged.

	-----------------------------------------------------------
	 ==================> DF-MP2 Energies <==================== 
	-----------------------------------------------------------
	 Reference Energy          =    -306.7897545989798687 [Eh]
	 Singles Energy            =      -0.0000000000000000 [Eh]
	 Same-Spin Energy          =      -0.3156105315695308 [Eh]
	 Opposite-Spin Energy      =      -1.0407025029512242 [Eh]
	 Correlation Energy        =      -1.3563130345207550 [Eh]
	 Total Energy              =    -308.1460676335006497 [Eh]
	-----------------------------------------------------------
	 ================> DF-SCS-MP2 Energies <================== 
	-----------------------------------------------------------
	 SCS Same-Spin Scale       =       0.3333333333333333 [-]
	 SCS Opposite-Spin Scale   =       1.2000000000000000 [-]
	 SCS Same-Spin Energy      =      -0.1052035105231769 [Eh]
	 SCS Opposite-Spin Energy  =      -1.2488430035414690 [Eh]
	 SCS Correlation Energy    =      -1.3540465140646460 [Eh]
	 SCS Total Energy          =    -308.1438011130445034 [Eh]
	-----------------------------------------------------------



Properties will be evaluated at   0.000000,  -0.000000,  -0.000000 [a0]

Properties computed using the MP2 density matrix

  Nuclear Dipole Moment: [e a0]
     X:     5.2079      Y:    -1.3747      Z:     0.0357

  Electronic Dipole Moment: [e a0]
     X:    -4.8478      Y:     1.1725      Z:    -0.0204

  Dipole Moment: [e a0]
     X:     0.3601      Y:    -0.2022      Z:     0.0153     Total:     0.4133

  Dipole Moment: [D]
     X:     0.9154      Y:    -0.5141      Z:     0.0388     Total:     1.0506


*** tstop() called on c465-113.stampede2.tacc.utexas.edu at Thu Apr  1 06:17:36 2021
Module time:
	user time   =     607.51 seconds =      10.13 minutes
	system time =      10.61 seconds =       0.18 minutes
	total time  =        101 seconds =       1.68 minutes
Total time:
	user time   =     785.44 seconds =      13.09 minutes
	system time =      16.71 seconds =       0.28 minutes
	total time  =        133 seconds =       2.22 minutes

    Psi4 stopped on: Thursday, 01 April 2021 06:17AM
    Psi4 wall time for execution: 0:02:14.37

*** Psi4 exiting successfully. Buy a developer a beer!
