528616                                                                  
Freq      RMP2-FC                                                     6-31G(d)            
Number of atoms                            I               16
Info1-9                                    I   N=           9
          28          26        1002           0           0         100
           6           2           1
Charge                                     I                0
Multiplicity                               I                1
Number of electrons                        I               54
Number of alpha electrons                  I               27
Number of beta electrons                   I               27
Number of basis functions                  I              123
Number of independent functions            I              123
Number of point charges in /Mol/           I                0
Number of translation vectors              I                0
Atomic numbers                             I   N=          16
           8           7           6           6           6           6
           6           1           1           1           1           1
           1           1           1           1
Nuclear charges                            R   N=          16
  8.00000000E+00  7.00000000E+00  6.00000000E+00  6.00000000E+00  6.00000000E+00
  6.00000000E+00  6.00000000E+00  1.00000000E+00  1.00000000E+00  1.00000000E+00
  1.00000000E+00  1.00000000E+00  1.00000000E+00  1.00000000E+00  1.00000000E+00
  1.00000000E+00
Current cartesian coordinates              R   N=          48
  6.23406846E-01  2.56315054E+00  1.37836748E-06  2.71141778E+00 -1.22622711E+00
 -3.38547202E-06 -1.84240458E+00 -1.21479722E+00 -6.39197792E-07 -4.02179519E+00
 -2.16906114E-02  1.40936724E+00 -4.02179378E+00 -2.16858456E-02 -1.40936704E+00
  5.79297857E-01  2.27454052E-01  1.91939996E-07  5.22471152E+00 -1.34437085E-01
  1.23584249E-06 -1.73250830E+00 -3.26666292E+00 -2.66342302E-06 -3.60274923E+00
  1.75158235E+00  2.34643732E+00 -5.30682502E+00 -1.27624790E+00  2.39801345E+00
 -5.30682437E+00 -1.27623424E+00 -2.39802313E+00 -3.60274023E+00  1.75159129E+00
 -2.34642610E+00  2.52371634E+00 -3.12645789E+00  2.68001391E-06  6.28172280E+00
 -6.99518615E-01 -1.68431475E+00  6.28171025E+00 -6.99496284E-01  1.68433277E+00
  4.98922360E+00  1.91076997E+00 -1.28401701E-05
Force Field                                I                0
Int Atom Types                             I   N=          16
           0           0           0           0           0           0
           0           0           0           0           0           0
           0           0           0           0
MM charges                                 R   N=          16
  0.00000000E+00  0.00000000E+00  0.00000000E+00  0.00000000E+00  0.00000000E+00
  0.00000000E+00  0.00000000E+00  0.00000000E+00  0.00000000E+00  0.00000000E+00
  0.00000000E+00  0.00000000E+00  0.00000000E+00  0.00000000E+00  0.00000000E+00
  0.00000000E+00
Integer atomic weights                     I   N=          16
          16          14          12          12          12          12
          12           1           1           1           1           1
           1           1           1           1
Real atomic weights                        R   N=          16
  1.59949146E+01  1.40030740E+01  1.20000000E+01  1.20000000E+01  1.20000000E+01
  1.20000000E+01  1.20000000E+01  1.00782504E+00  1.00782504E+00  1.00782504E+00
  1.00782504E+00  1.00782504E+00  1.00782504E+00  1.00782504E+00  1.00782504E+00
  1.00782504E+00
Atom fragment info                         I   N=          16
           0           0           0           0           0           0
           0           0           0           0           0           0
           0           0           0           0
Atom residue num                           I   N=          16
           0           0           0           0           0           0
           0           0           0           0           0           0
           0           0           0           0
Nuclear spins                              I   N=          16
           0           2           0           0           0           0
           0           1           1           1           1           1
           1           1           1           1
Nuclear ZEff                               R   N=          16
 -5.60000000E+00 -4.55000000E+00 -3.60000000E+00 -3.60000000E+00 -3.60000000E+00
 -3.60000000E+00 -3.60000000E+00 -1.00000000E+00 -1.00000000E+00 -1.00000000E+00
 -1.00000000E+00 -1.00000000E+00 -1.00000000E+00 -1.00000000E+00 -1.00000000E+00
 -1.00000000E+00
Nuclear QMom                               R   N=          16
  0.00000000E+00  2.04400000E+00  0.00000000E+00  0.00000000E+00  0.00000000E+00
  0.00000000E+00  0.00000000E+00  0.00000000E+00  0.00000000E+00  0.00000000E+00
  0.00000000E+00  0.00000000E+00  0.00000000E+00  0.00000000E+00  0.00000000E+00
  0.00000000E+00
Nuclear GFac                               R   N=          16
  0.00000000E+00  4.03761000E-01  0.00000000E+00  0.00000000E+00  0.00000000E+00
  0.00000000E+00  0.00000000E+00  2.79284600E+00  2.79284600E+00  2.79284600E+00
  2.79284600E+00  2.79284600E+00  2.79284600E+00  2.79284600E+00  2.79284600E+00
  2.79284600E+00
MicOpt                                     I   N=          16
          -1          -1          -1          -1          -1          -1
          -1          -1          -1          -1          -1          -1
          -1          -1          -1          -1
Number of contracted shells                I               46
Number of primitive shells                 I              113
Pure/Cartesian d shells                    I                1
Pure/Cartesian f shells                    I                0
Highest angular momentum                   I                2
Largest degree of contraction              I                6
Shell types                                I   N=          46
           0          -1          -1           2           0          -1
          -1           2           0          -1          -1           2
           0          -1          -1           2           0          -1
          -1           2           0          -1          -1           2
           0          -1          -1           2           0           0
           0           0           0           0           0           0
           0           0           0           0           0           0
           0           0           0           0
Number of primitives per shell             I   N=          46
           6           3           1           1           6           3
           1           1           6           3           1           1
           6           3           1           1           6           3
           1           1           6           3           1           1
           6           3           1           1           3           1
           3           1           3           1           3           1
           3           1           3           1           3           1
           3           1           3           1
Shell to atom map                          I   N=          46
           1           1           1           1           2           2
           2           2           3           3           3           3
           4           4           4           4           5           5
           5           5           6           6           6           6
           7           7           7           7           8           8
           9           9          10          10          11          11
          12          12          13          13          14          14
          15          15          16          16
Primitive exponents                        R   N=         113
  5.48467166E+03  8.25234946E+02  1.88046958E+02  5.29645000E+01  1.68975704E+01
  5.79963534E+00  1.55396162E+01  3.59993359E+00  1.01376175E+00  2.70005823E-01
  8.00000000E-01  4.17351146E+03  6.27457911E+02  1.42902093E+02  4.02343293E+01
  1.28202129E+01  4.39043701E+00  1.16263619E+01  2.71627981E+00  7.72218397E-01
  2.12031498E-01  8.00000000E-01  3.04752488E+03  4.57369518E+02  1.03948685E+02
  2.92101553E+01  9.28666296E+00  3.16392696E+00  7.86827235E+00  1.88128854E+00
  5.44249258E-01  1.68714478E-01  8.00000000E-01  3.04752488E+03  4.57369518E+02
  1.03948685E+02  2.92101553E+01  9.28666296E+00  3.16392696E+00  7.86827235E+00
  1.88128854E+00  5.44249258E-01  1.68714478E-01  8.00000000E-01  3.04752488E+03
  4.57369518E+02  1.03948685E+02  2.92101553E+01  9.28666296E+00  3.16392696E+00
  7.86827235E+00  1.88128854E+00  5.44249258E-01  1.68714478E-01  8.00000000E-01
  3.04752488E+03  4.57369518E+02  1.03948685E+02  2.92101553E+01  9.28666296E+00
  3.16392696E+00  7.86827235E+00  1.88128854E+00  5.44249258E-01  1.68714478E-01
  8.00000000E-01  3.04752488E+03  4.57369518E+02  1.03948685E+02  2.92101553E+01
  9.28666296E+00  3.16392696E+00  7.86827235E+00  1.88128854E+00  5.44249258E-01
  1.68714478E-01  8.00000000E-01  1.87311370E+01  2.82539436E+00  6.40121692E-01
  1.61277759E-01  1.87311370E+01  2.82539436E+00  6.40121692E-01  1.61277759E-01
  1.87311370E+01  2.82539436E+00  6.40121692E-01  1.61277759E-01  1.87311370E+01
  2.82539436E+00  6.40121692E-01  1.61277759E-01  1.87311370E+01  2.82539436E+00
  6.40121692E-01  1.61277759E-01  1.87311370E+01  2.82539436E+00  6.40121692E-01
  1.61277759E-01  1.87311370E+01  2.82539436E+00  6.40121692E-01  1.61277759E-01
  1.87311370E+01  2.82539436E+00  6.40121692E-01  1.61277759E-01  1.87311370E+01
  2.82539436E+00  6.40121692E-01  1.61277759E-01
Contraction coefficients                   R   N=         113
  1.83107443E-03  1.39501722E-02  6.84450781E-02  2.32714336E-01  4.70192898E-01
  3.58520853E-01 -1.10777550E-01 -1.48026263E-01  1.13076702E+00  1.00000000E+00
  1.00000000E+00  1.83477216E-03  1.39946270E-02  6.85865518E-02  2.32240873E-01
  4.69069948E-01  3.60455199E-01 -1.14961182E-01 -1.69117479E-01  1.14585195E+00
  1.00000000E+00  1.00000000E+00  1.83473713E-03  1.40373228E-02  6.88426223E-02
  2.32184443E-01  4.67941348E-01  3.62311985E-01 -1.19332420E-01 -1.60854152E-01
  1.14345644E+00  1.00000000E+00  1.00000000E+00  1.83473713E-03  1.40373228E-02
  6.88426223E-02  2.32184443E-01  4.67941348E-01  3.62311985E-01 -1.19332420E-01
 -1.60854152E-01  1.14345644E+00  1.00000000E+00  1.00000000E+00  1.83473713E-03
  1.40373228E-02  6.88426223E-02  2.32184443E-01  4.67941348E-01  3.62311985E-01
 -1.19332420E-01 -1.60854152E-01  1.14345644E+00  1.00000000E+00  1.00000000E+00
  1.83473713E-03  1.40373228E-02  6.88426223E-02  2.32184443E-01  4.67941348E-01
  3.62311985E-01 -1.19332420E-01 -1.60854152E-01  1.14345644E+00  1.00000000E+00
  1.00000000E+00  1.83473713E-03  1.40373228E-02  6.88426223E-02  2.32184443E-01
  4.67941348E-01  3.62311985E-01 -1.19332420E-01 -1.60854152E-01  1.14345644E+00
  1.00000000E+00  1.00000000E+00  3.34946043E-02  2.34726953E-01  8.13757326E-01
  1.00000000E+00  3.34946043E-02  2.34726953E-01  8.13757326E-01  1.00000000E+00
  3.34946043E-02  2.34726953E-01  8.13757326E-01  1.00000000E+00  3.34946043E-02
  2.34726953E-01  8.13757326E-01  1.00000000E+00  3.34946043E-02  2.34726953E-01
  8.13757326E-01  1.00000000E+00  3.34946043E-02  2.34726953E-01  8.13757326E-01
  1.00000000E+00  3.34946043E-02  2.34726953E-01  8.13757326E-01  1.00000000E+00
  3.34946043E-02  2.34726953E-01  8.13757326E-01  1.00000000E+00  3.34946043E-02
  2.34726953E-01  8.13757326E-01  1.00000000E+00
P(S=P) Contraction coefficients            R   N=         113
  0.00000000E+00  0.00000000E+00  0.00000000E+00  0.00000000E+00  0.00000000E+00
  0.00000000E+00  7.08742682E-02  3.39752839E-01  7.27158577E-01  1.00000000E+00
  0.00000000E+00  0.00000000E+00  0.00000000E+00  0.00000000E+00  0.00000000E+00
  0.00000000E+00  0.00000000E+00  6.75797439E-02  3.23907296E-01  7.40895140E-01
  1.00000000E+00  0.00000000E+00  0.00000000E+00  0.00000000E+00  0.00000000E+00
  0.00000000E+00  0.00000000E+00  0.00000000E+00  6.89990666E-02  3.16423961E-01
  7.44308291E-01  1.00000000E+00  0.00000000E+00  0.00000000E+00  0.00000000E+00
  0.00000000E+00  0.00000000E+00  0.00000000E+00  0.00000000E+00  6.89990666E-02
  3.16423961E-01  7.44308291E-01  1.00000000E+00  0.00000000E+00  0.00000000E+00
  0.00000000E+00  0.00000000E+00  0.00000000E+00  0.00000000E+00  0.00000000E+00
  6.89990666E-02  3.16423961E-01  7.44308291E-01  1.00000000E+00  0.00000000E+00
  0.00000000E+00  0.00000000E+00  0.00000000E+00  0.00000000E+00  0.00000000E+00
  0.00000000E+00  6.89990666E-02  3.16423961E-01  7.44308291E-01  1.00000000E+00
  0.00000000E+00  0.00000000E+00  0.00000000E+00  0.00000000E+00  0.00000000E+00
  0.00000000E+00  0.00000000E+00  6.89990666E-02  3.16423961E-01  7.44308291E-01
  1.00000000E+00  0.00000000E+00  0.00000000E+00  0.00000000E+00  0.00000000E+00
  0.00000000E+00  0.00000000E+00  0.00000000E+00  0.00000000E+00  0.00000000E+00
  0.00000000E+00  0.00000000E+00  0.00000000E+00  0.00000000E+00  0.00000000E+00
  0.00000000E+00  0.00000000E+00  0.00000000E+00  0.00000000E+00  0.00000000E+00
  0.00000000E+00  0.00000000E+00  0.00000000E+00  0.00000000E+00  0.00000000E+00
  0.00000000E+00  0.00000000E+00  0.00000000E+00  0.00000000E+00  0.00000000E+00
  0.00000000E+00  0.00000000E+00  0.00000000E+00  0.00000000E+00  0.00000000E+00
  0.00000000E+00  0.00000000E+00  0.00000000E+00
Coordinates of each shell                  R   N=         138
  6.23406846E-01  2.56315054E+00  1.37836748E-06  6.23406846E-01  2.56315054E+00
  1.37836748E-06  6.23406846E-01  2.56315054E+00  1.37836748E-06  6.23406846E-01
  2.56315054E+00  1.37836748E-06  2.71141778E+00 -1.22622711E+00 -3.38547202E-06
  2.71141778E+00 -1.22622711E+00 -3.38547202E-06  2.71141778E+00 -1.22622711E+00
 -3.38547202E-06  2.71141778E+00 -1.22622711E+00 -3.38547202E-06 -1.84240458E+00
 -1.21479722E+00 -6.39197792E-07 -1.84240458E+00 -1.21479722E+00 -6.39197792E-07
 -1.84240458E+00 -1.21479722E+00 -6.39197792E-07 -1.84240458E+00 -1.21479722E+00
 -6.39197792E-07 -4.02179519E+00 -2.16906114E-02  1.40936724E+00 -4.02179519E+00
 -2.16906114E-02  1.40936724E+00 -4.02179519E+00 -2.16906114E-02  1.40936724E+00
 -4.02179519E+00 -2.16906114E-02  1.40936724E+00 -4.02179378E+00 -2.16858456E-02
 -1.40936704E+00 -4.02179378E+00 -2.16858456E-02 -1.40936704E+00 -4.02179378E+00
 -2.16858456E-02 -1.40936704E+00 -4.02179378E+00 -2.16858456E-02 -1.40936704E+00
  5.79297857E-01  2.27454052E-01  1.91939996E-07  5.79297857E-01  2.27454052E-01
  1.91939996E-07  5.79297857E-01  2.27454052E-01  1.91939996E-07  5.79297857E-01
  2.27454052E-01  1.91939996E-07  5.22471152E+00 -1.34437085E-01  1.23584249E-06
  5.22471152E+00 -1.34437085E-01  1.23584249E-06  5.22471152E+00 -1.34437085E-01
  1.23584249E-06  5.22471152E+00 -1.34437085E-01  1.23584249E-06 -1.73250830E+00
 -3.26666292E+00 -2.66342302E-06 -1.73250830E+00 -3.26666292E+00 -2.66342302E-06
 -3.60274923E+00  1.75158235E+00  2.34643732E+00 -3.60274923E+00  1.75158235E+00
  2.34643732E+00 -5.30682502E+00 -1.27624790E+00  2.39801345E+00 -5.30682502E+00
 -1.27624790E+00  2.39801345E+00 -5.30682437E+00 -1.27623424E+00 -2.39802313E+00
 -5.30682437E+00 -1.27623424E+00 -2.39802313E+00 -3.60274023E+00  1.75159129E+00
 -2.34642610E+00 -3.60274023E+00  1.75159129E+00 -2.34642610E+00  2.52371634E+00
 -3.12645789E+00  2.68001391E-06  2.52371634E+00 -3.12645789E+00  2.68001391E-06
  6.28172280E+00 -6.99518615E-01 -1.68431475E+00  6.28172280E+00 -6.99518615E-01
 -1.68431475E+00  6.28171025E+00 -6.99496284E-01  1.68433277E+00  6.28171025E+00
 -6.99496284E-01  1.68433277E+00  4.98922360E+00  1.91076997E+00 -1.28401701E-05
  4.98922360E+00  1.91076997E+00 -1.28401701E-05
Constraint Structure                       R   N=          48
  6.23406846E-01  2.56315054E+00  1.37836748E-06  2.71141778E+00 -1.22622711E+00
 -3.38547202E-06 -1.84240458E+00 -1.21479722E+00 -6.39197792E-07 -4.02179519E+00
 -2.16906114E-02  1.40936724E+00 -4.02179378E+00 -2.16858456E-02 -1.40936704E+00
  5.79297857E-01  2.27454052E-01  1.91939996E-07  5.22471152E+00 -1.34437085E-01
  1.23584249E-06 -1.73250830E+00 -3.26666292E+00 -2.66342302E-06 -3.60274923E+00
  1.75158235E+00  2.34643732E+00 -5.30682502E+00 -1.27624790E+00  2.39801345E+00
 -5.30682437E+00 -1.27623424E+00 -2.39802313E+00 -3.60274023E+00  1.75159129E+00
 -2.34642610E+00  2.52371634E+00 -3.12645789E+00  2.68001391E-06  6.28172280E+00
 -6.99518615E-01 -1.68431475E+00  6.28171025E+00 -6.99496284E-01  1.68433277E+00
  4.98922360E+00  1.91076997E+00 -1.28401701E-05
Num ILSW                                   I              100
ILSW                                       I   N=         100
           0           1           0           0           2           0
           0           0           0           0           0          -1
           0           0           0           0           0           0
           0           0           0           0           1           0
           1           0           0           0           0           0
           0           0      100000           0          -1           0
           0           0           0           0           0           0
           0           0           0           1           1           0
           0           0           1           0           0           0
           0           0           4          40           0           0
           0           0           0           0           0           0
           0           0           0           0           0           0
           0           0           0           0           0           0
           0           0           0           0           0           0
           0           0           0           0           0           0
           0           0           0           0           0           0
           0           0           0           0
Num RLSW                                   I               40
RLSW                                       R   N=          40
  1.00000000E+00  1.00000000E+00  1.00000000E+00  1.00000000E+00  1.00000000E+00
  0.00000000E+00  0.00000000E+00  1.00000000E+00  0.00000000E+00  0.00000000E+00
  0.00000000E+00  0.00000000E+00  1.00000000E+00  0.00000000E+00  0.00000000E+00
  0.00000000E+00  0.00000000E+00  1.00000000E+00  0.00000000E+00  0.00000000E+00
  0.00000000E+00  0.00000000E+00  1.00000000E+00  0.00000000E+00  0.00000000E+00
  0.00000000E+00  0.00000000E+00  1.00000000E+00  0.00000000E+00  0.00000000E+00
  0.00000000E+00  0.00000000E+00  0.00000000E+00  0.00000000E+00  0.00000000E+00
  0.00000000E+00  0.00000000E+00  0.00000000E+00  1.00000000E+00  1.00000000E+00
MxBond                                     I                4
NBond                                      I   N=          16
           1           3           4           4           4           3
           4           1           1           1           1           1
           1           1           1           1
IBond                                      I   N=          64
           6           0           0           0           6           7
          13           0           4           5           6           8
           3           5           9          10           3           4
          11          12           1           2           3           0
           2          14          15          16           3           0
           0           0           4           0           0           0
           4           0           0           0           5           0
           0           0           5           0           0           0
           2           0           0           0           7           0
           0           0           7           0           0           0
           7           0           0           0
RBond                                      R   N=          64
  2.00000000E+00  0.00000000E+00  0.00000000E+00  0.00000000E+00  1.00000000E+00
  1.00000000E+00  1.00000000E+00  0.00000000E+00  1.00000000E+00  1.00000000E+00
  1.00000000E+00  1.00000000E+00  1.00000000E+00  1.00000000E+00  1.00000000E+00
  1.00000000E+00  1.00000000E+00  1.00000000E+00  1.00000000E+00  1.00000000E+00
  2.00000000E+00  1.00000000E+00  1.00000000E+00  0.00000000E+00  1.00000000E+00
  1.00000000E+00  1.00000000E+00  1.00000000E+00  1.00000000E+00  0.00000000E+00
  0.00000000E+00  0.00000000E+00  1.00000000E+00  0.00000000E+00  0.00000000E+00
  0.00000000E+00  1.00000000E+00  0.00000000E+00  0.00000000E+00  0.00000000E+00
  1.00000000E+00  0.00000000E+00  0.00000000E+00  0.00000000E+00  1.00000000E+00
  0.00000000E+00  0.00000000E+00  0.00000000E+00  1.00000000E+00  0.00000000E+00
  0.00000000E+00  0.00000000E+00  1.00000000E+00  0.00000000E+00  0.00000000E+00
  0.00000000E+00  1.00000000E+00  0.00000000E+00  0.00000000E+00  0.00000000E+00
  1.00000000E+00  0.00000000E+00  0.00000000E+00  0.00000000E+00
Virial Ratio                               R      2.002347915717111E+00
SCF Energy                                 R     -3.238755466290568E+02
MP2 Energy                                 R     -3.248589328101598E+02
Total Energy                               R     -3.248589328101598E+02
Post-SCF wavefunction norm                 R      1.622172703298259E+00
RMS Force                                  R      8.650962862664675E-08
RMS Density                                R      7.039638634673503E-10
External E-field                           R   N=          35
  0.00000000E+00  0.00000000E+00  0.00000000E+00  0.00000000E+00  0.00000000E+00
  0.00000000E+00  0.00000000E+00  0.00000000E+00  0.00000000E+00  0.00000000E+00
  0.00000000E+00  0.00000000E+00  0.00000000E+00  0.00000000E+00  0.00000000E+00
  0.00000000E+00  0.00000000E+00  0.00000000E+00  0.00000000E+00  0.00000000E+00
  0.00000000E+00  0.00000000E+00  0.00000000E+00  0.00000000E+00  0.00000000E+00
  0.00000000E+00  0.00000000E+00  0.00000000E+00  0.00000000E+00  0.00000000E+00
  0.00000000E+00  0.00000000E+00  0.00000000E+00  0.00000000E+00  0.00000000E+00
IOpCl                                      I                0
IROHF                                      I                0
Alpha Orbital Energies                     R   N=         123
 -2.05123188E+01 -1.55880913E+01 -1.13481485E+01 -1.12562324E+01 -1.12423243E+01
 -1.12337759E+01 -1.12330885E+01 -1.36207368E+00 -1.22179471E+00 -1.14910800E+00
 -9.65903318E-01 -8.57344399E-01 -8.24577402E-01 -7.73739043E-01 -7.13307937E-01
 -6.61932036E-01 -6.18878834E-01 -6.17142921E-01 -6.04176187E-01 -5.42324932E-01
 -5.41213376E-01 -5.40789625E-01 -5.10567006E-01 -4.36883657E-01 -4.15731237E-01
 -4.10434819E-01 -3.82637236E-01  1.98463211E-01  2.14858801E-01  2.55076018E-01
  2.68756498E-01  2.84619889E-01  3.07356366E-01  3.23775717E-01  3.29956427E-01
  3.41605976E-01  3.47184175E-01  3.68769027E-01  3.82888221E-01  4.14359054E-01
  4.38446599E-01  4.87804318E-01  5.13114838E-01  5.86250887E-01  7.08897152E-01
  7.37160814E-01  7.44085526E-01  7.60276001E-01  7.66968712E-01  8.21437069E-01
  8.34478167E-01  8.71710364E-01  8.77732273E-01  8.99082633E-01  9.09565490E-01
  9.39543504E-01  9.62439312E-01  9.92570387E-01  1.01684942E+00  1.05715207E+00
  1.09723287E+00  1.09955677E+00  1.12584574E+00  1.13624307E+00  1.15681763E+00
  1.16798551E+00  1.20115822E+00  1.20709196E+00  1.21267026E+00  1.22455708E+00
  1.24678142E+00  1.26197455E+00  1.36813446E+00  1.37607437E+00  1.46353725E+00
  1.49852833E+00  1.50264227E+00  1.55778483E+00  1.65632533E+00  1.68398673E+00
  1.74609229E+00  1.77607517E+00  1.83603548E+00  1.87428005E+00  2.01067649E+00
  2.08598969E+00  2.10542253E+00  2.14831413E+00  2.17457936E+00  2.18425752E+00
  2.19023232E+00  2.21676476E+00  2.23540605E+00  2.29788656E+00  2.31224590E+00
  2.37502602E+00  2.40340496E+00  2.45183512E+00  2.54497265E+00  2.61584115E+00
  2.63162569E+00  2.63309039E+00  2.65188709E+00  2.68959585E+00  2.72976723E+00
  2.80345333E+00  2.84237367E+00  2.85642665E+00  2.90381759E+00  2.97567251E+00
  2.98338794E+00  3.02978749E+00  3.16998280E+00  3.28443592E+00  3.42125693E+00
  3.52320129E+00  4.38541974E+00  4.52470276E+00  4.64484637E+00  4.67732107E+00
  4.81629908E+00  4.83339699E+00  5.01225932E+00
Alpha MO coefficients                      R   N=       15129
  9.94686431E-01  2.09823322E-02 -1.45252847E-05 -1.52173473E-03 -8.36367661E-10
  4.43543071E-03  3.23656737E-05  1.09744088E-04 -3.10633836E-11 -3.91411396E-03
 -3.68977074E-03 -4.09898706E-03  7.35482136E-06  6.78249555E-11  2.55272619E-10
 -6.10434268E-06 -3.29677753E-05  1.92317074E-06 -3.11865611E-05 -5.96823790E-11
  8.18718727E-05  4.44471166E-06  6.85626611E-05  4.55552571E-10  8.95884238E-05
 -8.06084892E-05 -4.55190564E-05  2.65838804E-05 -6.67865917E-11  4.02406241E-11
 -2.00620750E-06 -3.86442766E-06 -8.60644687E-06 -2.96627793E-05 -7.58930626E-12
 -2.43302789E-05 -2.60695222E-04  1.15059685E-05  1.27265861E-10  4.19804487E-05
 -6.27282987E-05 -1.62249221E-05 -4.55439577E-05 -2.21425352E-11 -1.07395490E-11
  2.86111414E-06  1.45225783E-05  3.66999268E-06  5.53280291E-06 -8.32574856E-06
 -3.77383781E-05 -7.30700793E-05  5.37273652E-05  8.01306548E-05 -9.00909382E-07
  9.20164571E-07 -6.55623285E-07  8.25530564E-06  8.77124243E-06 -1.11341544E-05
  2.86106127E-06  1.45224062E-05  3.66993678E-06  5.53261724E-06  8.32581588E-06
 -3.77364940E-05 -7.30695733E-05  5.37287824E-05 -8.01307237E-05 -9.01085576E-07
  9.20049851E-07 -6.55642015E-07  8.25527624E-06 -8.77119905E-06  1.11341226E-05
 -4.78711459E-06  5.08593395E-04  8.96902593E-06  6.32071007E-06  6.51763371E-11
 -1.87635020E-04 -1.99390539E-04 -4.93633853E-04 -4.74520773E-10 -5.07476425E-05
 -7.42739447E-04 -5.70607973E-05  5.87284234E-06 -4.56107362E-11 -3.85811163E-10
 -7.48742896E-06 -1.30416673E-05  1.87551440E-05  7.62926743E-06  2.73456459E-10
  1.53346626E-04  3.00895790E-05  6.55554539E-05 -1.18729315E-09 -4.38610110E-05
 -2.05571266E-05 -1.09097700E-05 -1.86830633E-05 -1.49744933E-10 -3.19857133E-11
  1.72464932E-05 -1.39768459E-05  2.54496736E-05 -1.09489910E-04 -4.48920335E-06
 -2.59213066E-05 -4.48922021E-06 -2.59212218E-05  2.54495495E-05 -1.09491665E-04
  2.20167727E-05 -4.48127661E-06 -8.84283299E-06 -1.47905080E-05 -8.84263003E-06
 -1.47896939E-05  1.27993361E-05 -1.66828847E-04 -2.39969172E-05 -1.43934774E-04
  3.78602567E-06  1.93759713E-05  4.67519897E-11  8.72027328E-04 -3.78844273E-04
 -2.04853075E-04 -3.38337946E-10 -7.71608906E-05 -5.00351458E-05 -1.17067854E-04
  9.09692959E-05 -6.41932539E-11  8.88050765E-11  9.94963625E-01  2.53301816E-02
 -4.43548725E-05  2.92081977E-05  9.26416645E-09 -3.75809976E-03  4.83387075E-04
 -8.83395591E-04 -8.06691098E-09 -3.49393663E-03 -3.46361832E-03 -3.30915227E-03
 -2.10682476E-05 -1.02130960E-10 -3.37220168E-10 -1.93860849E-05 -9.25415365E-05
  2.69925267E-06 -4.27813180E-05 -1.00008898E-10  4.67772694E-04 -4.39317517E-04
  8.13726769E-04  1.04356018E-09 -6.70660581E-05  8.35611628E-06 -4.33458089E-05
  7.03163962E-06 -4.24008818E-11  2.55646818E-11 -1.34840233E-05 -5.83997807E-05
 -4.29297093E-05  2.61352748E-06  2.95298183E-05 -2.26822533E-04 -8.76682251E-06
  5.92115025E-05  7.99710751E-06 -1.37242068E-05 -2.38266990E-05 -1.85561231E-05
 -1.45653007E-06  7.57573169E-06  4.93162355E-06 -1.34840541E-05 -5.83999236E-05
 -4.29296583E-05  2.61369532E-06 -2.95298166E-05 -2.26821402E-04 -8.76631902E-06
  5.92111228E-05 -7.99660582E-06 -1.37241238E-05 -2.38267610E-05 -1.85562494E-05
 -1.45645915E-06 -7.57575117E-06 -4.93164873E-06  1.84431407E-05  1.67919605E-04
  1.67500023E-04 -1.13750860E-04 -6.82164595E-11  1.41353116E-03  1.79447975E-03
 -1.40307616E-03 -9.13247755E-10 -5.34653916E-05 -1.30201262E-04 -5.81162698E-05
  4.39790571E-05  1.20102461E-10 -5.33652224E-11 -4.08663183E-07  1.64832335E-04
 -2.60645275E-04 -1.10992920E-04  2.18511885E-11  1.10165313E-03 -4.50688102E-04
  4.07599568E-05 -9.98069872E-10 -4.62271239E-05 -9.67205032E-05 -5.12987195E-05
 -2.63601785E-05 -9.14492762E-11 -5.27434611E-10  5.77432310E-05  2.80150168E-04
 -3.05057652E-06  3.33946959E-05  1.36160183E-05  4.38031358E-05  1.36160100E-05
  4.38030322E-05 -3.05041322E-06  3.33948574E-05  2.30127532E-04  2.25630570E-04
 -7.58421666E-05 -2.63021090E-05 -7.58429048E-05 -2.63007972E-05 -7.99222205E-05
 -2.46216821E-04 -1.80499571E-04  8.67971844E-04  2.35204946E-05 -2.91331770E-04
 -1.22431414E-11 -4.62962900E-03 -4.13447202E-04  2.04371440E-03  6.51875944E-10
  3.78545833E-04  1.23793583E-04  5.75446456E-04  8.52774885E-05 -9.92172333E-11
 -1.75133898E-10 -2.77404412E-04  2.97180396E-04  1.27736474E-04  7.79457317E-05
 -4.37074174E-10  9.51844702E-04 -7.51951200E-04 -2.14166214E-03  1.41224991E-09
 -5.81480785E-04 -3.53167527E-04  1.37567668E-04  3.37638870E-04  6.34314158E-10
 -2.08292793E-09  3.13026401E-03  2.88148467E-04 -7.87204215E-05 -1.13194221E-05
 -3.18202452E-10  3.43760710E-03  3.48035257E-03 -1.48290907E-04  1.84884088E-09
 -4.36734768E-04 -2.58243558E-04 -1.33195519E-04 -1.40556142E-04 -5.83320728E-11
  1.67686787E-10 -6.16627241E-05 -2.16833958E-04 -4.01443426E-05 -9.30430185E-06
  1.33289114E-05  1.02267015E-03  5.20943212E-04 -3.21781214E-04 -3.77830191E-04
  9.34788421E-06 -4.20665425E-05 -4.29790762E-05 -4.59528770E-06 -5.72058647E-05
  6.50485120E-05 -6.16627187E-05 -2.16834575E-04 -4.01441833E-05 -9.30398004E-06
 -1.33288175E-05  1.02267280E-03  5.20944330E-04 -3.21783327E-04  3.77828711E-04
  9.34816117E-06 -4.20663651E-05 -4.29798481E-05 -4.59533384E-06  5.72058390E-05
 -6.50484667E-05  9.95866813E-01  2.62654501E-02  4.75301831E-04  2.11596957E-07
 -1.31254096E-09 -7.32474887E-03  2.60198355E-03  5.10765952E-03  2.28581818E-09
 -1.21191469E-03 -6.46450715E-04 -2.27163017E-03 -1.84730428E-04 -1.21001998E-09
  1.45861464E-09 -6.85332694E-05 -1.40700988E-04 -1.31022269E-04 -9.33768725E-05
  1.04177485E-10  9.02580955E-04 -6.68542702E-04  4.21483049E-04 -5.01048059E-09