2775324                                                                 
Freq      RMP2-FC                                                     6-31G(d)            
Number of atoms                            I               18
Info1-9                                    I   N=           9
          30          28        1002           0           0         100
           6           2           1
Charge                                     I                0
Multiplicity                               I                1
Number of electrons                        I               82
Number of alpha electrons                  I               41
Number of beta electrons                   I               41
Number of basis functions                  I              179
Number of independent functions            I              179
Number of point charges in /Mol/           I                0
Number of translation vectors              I                0
Atomic numbers                             I   N=          18
           9           9           9           6           6           6
           6           6           6           6           6           1
           1           1           1           1           1           1
Nuclear charges                            R   N=          18
  9.00000000E+00  9.00000000E+00  9.00000000E+00  6.00000000E+00  6.00000000E+00
  6.00000000E+00  6.00000000E+00  6.00000000E+00  6.00000000E+00  6.00000000E+00
  6.00000000E+00  1.00000000E+00  1.00000000E+00  1.00000000E+00  1.00000000E+00
  1.00000000E+00  1.00000000E+00  1.00000000E+00
Current cartesian coordinates              R   N=          54
 -3.72927515E+00  8.94887144E-01 -1.87823188E+00 -3.66863282E+00 -2.88543600E+00
 -2.67937315E-01 -3.66105279E+00  3.96282527E-01  2.20657856E+00  1.11105217E-01
 -4.80882489E-01 -3.47581963E-02  1.40133323E+00  1.84673778E+00  1.48823045E-02
  1.41878542E+00 -2.77459920E+00 -3.37135850E-02  4.04474010E+00  1.77034899E+00
  2.40861636E-02 -2.72160895E+00 -5.25796762E-01  2.42750773E-03  5.87269958E-02
  4.36179598E+00 -3.57091783E-02  4.05367118E+00 -2.79150236E+00 -2.02197714E-02
  5.36966812E+00 -5.10348406E-01  1.70738928E-02  3.74439398E-01 -4.53874037E+00
 -5.85151856E-02  5.08487015E+00  3.54421119E+00  5.84322345E-02 -6.62450988E-01
  4.78311204E+00 -1.92612192E+00 -1.54197944E+00  4.39885628E+00  1.26418664E+00
  1.36741791E+00  5.86508550E+00  5.04997293E-01  5.06547618E+00 -4.57867864E+00
 -2.32152551E-02  7.42434578E+00 -4.99970271E-01  3.21370699E-02
Force Field                                I                0
Int Atom Types                             I   N=          18
           0           0           0           0           0           0
           0           0           0           0           0           0
           0           0           0           0           0           0
MM charges                                 R   N=          18
  0.00000000E+00  0.00000000E+00  0.00000000E+00  0.00000000E+00  0.00000000E+00
  0.00000000E+00  0.00000000E+00  0.00000000E+00  0.00000000E+00  0.00000000E+00
  0.00000000E+00  0.00000000E+00  0.00000000E+00  0.00000000E+00  0.00000000E+00
  0.00000000E+00  0.00000000E+00  0.00000000E+00
Integer atomic weights                     I   N=          18
          19          19          19          12          12          12
          12          12          12          12          12           1
           1           1           1           1           1           1
Real atomic weights                        R   N=          18
  1.89984032E+01  1.89984032E+01  1.89984032E+01  1.20000000E+01  1.20000000E+01
  1.20000000E+01  1.20000000E+01  1.20000000E+01  1.20000000E+01  1.20000000E+01
  1.20000000E+01  1.00782504E+00  1.00782504E+00  1.00782504E+00  1.00782504E+00
  1.00782504E+00  1.00782504E+00  1.00782504E+00
Atom fragment info                         I   N=          18
           0           0           0           0           0           0
           0           0           0           0           0           0
           0           0           0           0           0           0
Atom residue num                           I   N=          18
           0           0           0           0           0           0
           0           0           0           0           0           0
           0           0           0           0           0           0
Nuclear spins                              I   N=          18
           1           1           1           0           0           0
           0           0           0           0           0           1
           1           1           1           1           1           1
Nuclear ZEff                               R   N=          18
 -6.75000000E+00 -6.75000000E+00 -6.75000000E+00 -3.60000000E+00 -3.60000000E+00
 -3.60000000E+00 -3.60000000E+00 -3.60000000E+00 -3.60000000E+00 -3.60000000E+00
 -3.60000000E+00 -1.00000000E+00 -1.00000000E+00 -1.00000000E+00 -1.00000000E+00
 -1.00000000E+00 -1.00000000E+00 -1.00000000E+00
Nuclear QMom                               R   N=          18
  0.00000000E+00  0.00000000E+00  0.00000000E+00  0.00000000E+00  0.00000000E+00
  0.00000000E+00  0.00000000E+00  0.00000000E+00  0.00000000E+00  0.00000000E+00
  0.00000000E+00  0.00000000E+00  0.00000000E+00  0.00000000E+00  0.00000000E+00
  0.00000000E+00  0.00000000E+00  0.00000000E+00
Nuclear GFac                               R   N=          18
  2.62886700E+00  2.62886700E+00  2.62886700E+00  0.00000000E+00  0.00000000E+00
  0.00000000E+00  0.00000000E+00  0.00000000E+00  0.00000000E+00  0.00000000E+00
  0.00000000E+00  2.79284600E+00  2.79284600E+00  2.79284600E+00  2.79284600E+00
  2.79284600E+00  2.79284600E+00  2.79284600E+00
MicOpt                                     I   N=          18
          -1          -1          -1          -1          -1          -1
          -1          -1          -1          -1          -1          -1
          -1          -1          -1          -1          -1          -1
Number of contracted shells                I               58
Number of primitive shells                 I              149
Pure/Cartesian d shells                    I                1
Pure/Cartesian f shells                    I                0
Highest angular momentum                   I                2
Largest degree of contraction              I                6
Shell types                                I   N=          58
           0          -1          -1           2           0          -1
          -1           2           0          -1          -1           2
           0          -1          -1           2           0          -1
          -1           2           0          -1          -1           2
           0          -1          -1           2           0          -1
          -1           2           0          -1          -1           2
           0          -1          -1           2           0          -1
          -1           2           0           0           0           0
           0           0           0           0           0           0
           0           0           0           0
Number of primitives per shell             I   N=          58
           6           3           1           1           6           3
           1           1           6           3           1           1
           6           3           1           1           6           3
           1           1           6           3           1           1
           6           3           1           1           6           3
           1           1           6           3           1           1
           6           3           1           1           6           3
           1           1           3           1           3           1
           3           1           3           1           3           1
           3           1           3           1
Shell to atom map                          I   N=          58
           1           1           1           1           2           2
           2           2           3           3           3           3
           4           4           4           4           5           5
           5           5           6           6           6           6
           7           7           7           7           8           8
           8           8           9           9           9           9
          10          10          10          10          11          11
          11          11          12          12          13          13
          14          14          15          15          16          16
          17          17          18          18
Primitive exponents                        R   N=         149
  7.00171309E+03  1.05136609E+03  2.39285690E+02  6.73974453E+01  2.15199573E+01
  7.40310130E+00  2.08479528E+01  4.80830834E+00  1.34406986E+00  3.58151393E-01
  8.00000000E-01  7.00171309E+03  1.05136609E+03  2.39285690E+02  6.73974453E+01
  2.15199573E+01  7.40310130E+00  2.08479528E+01  4.80830834E+00  1.34406986E+00
  3.58151393E-01  8.00000000E-01  7.00171309E+03  1.05136609E+03  2.39285690E+02
  6.73974453E+01  2.15199573E+01  7.40310130E+00  2.08479528E+01  4.80830834E+00
  1.34406986E+00  3.58151393E-01  8.00000000E-01  3.04752488E+03  4.57369518E+02
  1.03948685E+02  2.92101553E+01  9.28666296E+00  3.16392696E+00  7.86827235E+00
  1.88128854E+00  5.44249258E-01  1.68714478E-01  8.00000000E-01  3.04752488E+03
  4.57369518E+02  1.03948685E+02  2.92101553E+01  9.28666296E+00  3.16392696E+00
  7.86827235E+00  1.88128854E+00  5.44249258E-01  1.68714478E-01  8.00000000E-01
  3.04752488E+03  4.57369518E+02  1.03948685E+02  2.92101553E+01  9.28666296E+00
  3.16392696E+00  7.86827235E+00  1.88128854E+00  5.44249258E-01  1.68714478E-01
  8.00000000E-01  3.04752488E+03  4.57369518E+02  1.03948685E+02  2.92101553E+01
  9.28666296E+00  3.16392696E+00  7.86827235E+00  1.88128854E+00  5.44249258E-01
  1.68714478E-01  8.00000000E-01  3.04752488E+03  4.57369518E+02  1.03948685E+02
  2.92101553E+01  9.28666296E+00  3.16392696E+00  7.86827235E+00  1.88128854E+00
  5.44249258E-01  1.68714478E-01  8.00000000E-01  3.04752488E+03  4.57369518E+02
  1.03948685E+02  2.92101553E+01  9.28666296E+00  3.16392696E+00  7.86827235E+00
  1.88128854E+00  5.44249258E-01  1.68714478E-01  8.00000000E-01  3.04752488E+03
  4.57369518E+02  1.03948685E+02  2.92101553E+01  9.28666296E+00  3.16392696E+00
  7.86827235E+00  1.88128854E+00  5.44249258E-01  1.68714478E-01  8.00000000E-01
  3.04752488E+03  4.57369518E+02  1.03948685E+02  2.92101553E+01  9.28666296E+00
  3.16392696E+00  7.86827235E+00  1.88128854E+00  5.44249258E-01  1.68714478E-01
  8.00000000E-01  1.87311370E+01  2.82539436E+00  6.40121692E-01  1.61277759E-01
  1.87311370E+01  2.82539436E+00  6.40121692E-01  1.61277759E-01  1.87311370E+01
  2.82539436E+00  6.40121692E-01  1.61277759E-01  1.87311370E+01  2.82539436E+00
  6.40121692E-01  1.61277759E-01  1.87311370E+01  2.82539436E+00  6.40121692E-01
  1.61277759E-01  1.87311370E+01  2.82539436E+00  6.40121692E-01  1.61277759E-01
  1.87311370E+01  2.82539436E+00  6.40121692E-01  1.61277759E-01
Contraction coefficients                   R   N=         149
  1.81961690E-03  1.39160796E-02  6.84053245E-02  2.33185760E-01  4.71267439E-01
  3.56618546E-01 -1.08506975E-01 -1.46451658E-01  1.12868858E+00  1.00000000E+00
  1.00000000E+00  1.81961690E-03  1.39160796E-02  6.84053245E-02  2.33185760E-01
  4.71267439E-01  3.56618546E-01 -1.08506975E-01 -1.46451658E-01  1.12868858E+00
  1.00000000E+00  1.00000000E+00  1.81961690E-03  1.39160796E-02  6.84053245E-02
  2.33185760E-01  4.71267439E-01  3.56618546E-01 -1.08506975E-01 -1.46451658E-01
  1.12868858E+00  1.00000000E+00  1.00000000E+00  1.83473713E-03  1.40373228E-02
  6.88426223E-02  2.32184443E-01  4.67941348E-01  3.62311985E-01 -1.19332420E-01
 -1.60854152E-01  1.14345644E+00  1.00000000E+00  1.00000000E+00  1.83473713E-03
  1.40373228E-02  6.88426223E-02  2.32184443E-01  4.67941348E-01  3.62311985E-01
 -1.19332420E-01 -1.60854152E-01  1.14345644E+00  1.00000000E+00  1.00000000E+00
  1.83473713E-03  1.40373228E-02  6.88426223E-02  2.32184443E-01  4.67941348E-01
  3.62311985E-01 -1.19332420E-01 -1.60854152E-01  1.14345644E+00  1.00000000E+00
  1.00000000E+00  1.83473713E-03  1.40373228E-02  6.88426223E-02  2.32184443E-01
  4.67941348E-01  3.62311985E-01 -1.19332420E-01 -1.60854152E-01  1.14345644E+00
  1.00000000E+00  1.00000000E+00  1.83473713E-03  1.40373228E-02  6.88426223E-02
  2.32184443E-01  4.67941348E-01  3.62311985E-01 -1.19332420E-01 -1.60854152E-01
  1.14345644E+00  1.00000000E+00  1.00000000E+00  1.83473713E-03  1.40373228E-02
  6.88426223E-02  2.32184443E-01  4.67941348E-01  3.62311985E-01 -1.19332420E-01
 -1.60854152E-01  1.14345644E+00  1.00000000E+00  1.00000000E+00  1.83473713E-03
  1.40373228E-02  6.88426223E-02  2.32184443E-01  4.67941348E-01  3.62311985E-01
 -1.19332420E-01 -1.60854152E-01  1.14345644E+00  1.00000000E+00  1.00000000E+00
  1.83473713E-03  1.40373228E-02  6.88426223E-02  2.32184443E-01  4.67941348E-01
  3.62311985E-01 -1.19332420E-01 -1.60854152E-01  1.14345644E+00  1.00000000E+00
  1.00000000E+00  3.34946043E-02  2.34726953E-01  8.13757326E-01  1.00000000E+00
  3.34946043E-02  2.34726953E-01  8.13757326E-01  1.00000000E+00  3.34946043E-02
  2.34726953E-01  8.13757326E-01  1.00000000E+00  3.34946043E-02  2.34726953E-01
  8.13757326E-01  1.00000000E+00  3.34946043E-02  2.34726953E-01  8.13757326E-01
  1.00000000E+00  3.34946043E-02  2.34726953E-01  8.13757326E-01  1.00000000E+00
  3.34946043E-02  2.34726953E-01  8.13757326E-01  1.00000000E+00
P(S=P) Contraction coefficients            R   N=         149
  0.00000000E+00  0.00000000E+00  0.00000000E+00  0.00000000E+00  0.00000000E+00
  0.00000000E+00  7.16287242E-02  3.45912103E-01  7.22469956E-01  1.00000000E+00
  0.00000000E+00  0.00000000E+00  0.00000000E+00  0.00000000E+00  0.00000000E+00
  0.00000000E+00  0.00000000E+00  7.16287242E-02  3.45912103E-01  7.22469956E-01
  1.00000000E+00  0.00000000E+00  0.00000000E+00  0.00000000E+00  0.00000000E+00
  0.00000000E+00  0.00000000E+00  0.00000000E+00  7.16287242E-02  3.45912103E-01
  7.22469956E-01  1.00000000E+00  0.00000000E+00  0.00000000E+00  0.00000000E+00
  0.00000000E+00  0.00000000E+00  0.00000000E+00  0.00000000E+00  6.89990666E-02
  3.16423961E-01  7.44308291E-01  1.00000000E+00  0.00000000E+00  0.00000000E+00
  0.00000000E+00  0.00000000E+00  0.00000000E+00  0.00000000E+00  0.00000000E+00
  6.89990666E-02  3.16423961E-01  7.44308291E-01  1.00000000E+00  0.00000000E+00
  0.00000000E+00  0.00000000E+00  0.00000000E+00  0.00000000E+00  0.00000000E+00
  0.00000000E+00  6.89990666E-02  3.16423961E-01  7.44308291E-01  1.00000000E+00
  0.00000000E+00  0.00000000E+00  0.00000000E+00  0.00000000E+00  0.00000000E+00
  0.00000000E+00  0.00000000E+00  6.89990666E-02  3.16423961E-01  7.44308291E-01
  1.00000000E+00  0.00000000E+00  0.00000000E+00  0.00000000E+00  0.00000000E+00
  0.00000000E+00  0.00000000E+00  0.00000000E+00  6.89990666E-02  3.16423961E-01
  7.44308291E-01  1.00000000E+00  0.00000000E+00  0.00000000E+00  0.00000000E+00
  0.00000000E+00  0.00000000E+00  0.00000000E+00  0.00000000E+00  6.89990666E-02
  3.16423961E-01  7.44308291E-01  1.00000000E+00  0.00000000E+00  0.00000000E+00
  0.00000000E+00  0.00000000E+00  0.00000000E+00  0.00000000E+00  0.00000000E+00
  6.89990666E-02  3.16423961E-01  7.44308291E-01  1.00000000E+00  0.00000000E+00
  0.00000000E+00  0.00000000E+00  0.00000000E+00  0.00000000E+00  0.00000000E+00
  0.00000000E+00  6.89990666E-02  3.16423961E-01  7.44308291E-01  1.00000000E+00
  0.00000000E+00  0.00000000E+00  0.00000000E+00  0.00000000E+00  0.00000000E+00
  0.00000000E+00  0.00000000E+00  0.00000000E+00  0.00000000E+00  0.00000000E+00
  0.00000000E+00  0.00000000E+00  0.00000000E+00  0.00000000E+00  0.00000000E+00
  0.00000000E+00  0.00000000E+00  0.00000000E+00  0.00000000E+00  0.00000000E+00
  0.00000000E+00  0.00000000E+00  0.00000000E+00  0.00000000E+00  0.00000000E+00
  0.00000000E+00  0.00000000E+00  0.00000000E+00  0.00000000E+00
Coordinates of each shell                  R   N=         174
 -3.72927515E+00  8.94887144E-01 -1.87823188E+00 -3.72927515E+00  8.94887144E-01
 -1.87823188E+00 -3.72927515E+00  8.94887144E-01 -1.87823188E+00 -3.72927515E+00
  8.94887144E-01 -1.87823188E+00 -3.66863282E+00 -2.88543600E+00 -2.67937315E-01
 -3.66863282E+00 -2.88543600E+00 -2.67937315E-01 -3.66863282E+00 -2.88543600E+00
 -2.67937315E-01 -3.66863282E+00 -2.88543600E+00 -2.67937315E-01 -3.66105279E+00
  3.96282527E-01  2.20657856E+00 -3.66105279E+00  3.96282527E-01  2.20657856E+00
 -3.66105279E+00  3.96282527E-01  2.20657856E+00 -3.66105279E+00  3.96282527E-01
  2.20657856E+00  1.11105217E-01 -4.80882489E-01 -3.47581963E-02  1.11105217E-01
 -4.80882489E-01 -3.47581963E-02  1.11105217E-01 -4.80882489E-01 -3.47581963E-02
  1.11105217E-01 -4.80882489E-01 -3.47581963E-02  1.40133323E+00  1.84673778E+00
  1.48823045E-02  1.40133323E+00  1.84673778E+00  1.48823045E-02  1.40133323E+00
  1.84673778E+00  1.48823045E-02  1.40133323E+00  1.84673778E+00  1.48823045E-02
  1.41878542E+00 -2.77459920E+00 -3.37135850E-02  1.41878542E+00 -2.77459920E+00
 -3.37135850E-02  1.41878542E+00 -2.77459920E+00 -3.37135850E-02  1.41878542E+00
 -2.77459920E+00 -3.37135850E-02  4.04474010E+00  1.77034899E+00  2.40861636E-02
  4.04474010E+00  1.77034899E+00  2.40861636E-02  4.04474010E+00  1.77034899E+00
  2.40861636E-02  4.04474010E+00  1.77034899E+00  2.40861636E-02 -2.72160895E+00
 -5.25796762E-01  2.42750773E-03 -2.72160895E+00 -5.25796762E-01  2.42750773E-03
 -2.72160895E+00 -5.25796762E-01  2.42750773E-03 -2.72160895E+00 -5.25796762E-01
  2.42750773E-03  5.87269958E-02  4.36179598E+00 -3.57091783E-02  5.87269958E-02
  4.36179598E+00 -3.57091783E-02  5.87269958E-02  4.36179598E+00 -3.57091783E-02
  5.87269958E-02  4.36179598E+00 -3.57091783E-02  4.05367118E+00 -2.79150236E+00
 -2.02197714E-02  4.05367118E+00 -2.79150236E+00 -2.02197714E-02  4.05367118E+00
 -2.79150236E+00 -2.02197714E-02  4.05367118E+00 -2.79150236E+00 -2.02197714E-02
  5.36966812E+00 -5.10348406E-01  1.70738928E-02  5.36966812E+00 -5.10348406E-01
  1.70738928E-02  5.36966812E+00 -5.10348406E-01  1.70738928E-02  5.36966812E+00
 -5.10348406E-01  1.70738928E-02  3.74439398E-01 -4.53874037E+00 -5.85151856E-02
  3.74439398E-01 -4.53874037E+00 -5.85151856E-02  5.08487015E+00  3.54421119E+00
  5.84322345E-02  5.08487015E+00  3.54421119E+00  5.84322345E-02 -6.62450988E-01
  4.78311204E+00 -1.92612192E+00 -6.62450988E-01  4.78311204E+00 -1.92612192E+00
 -1.54197944E+00  4.39885628E+00  1.26418664E+00 -1.54197944E+00  4.39885628E+00
  1.26418664E+00  1.36741791E+00  5.86508550E+00  5.04997293E-01  1.36741791E+00
  5.86508550E+00  5.04997293E-01  5.06547618E+00 -4.57867864E+00 -2.32152551E-02
  5.06547618E+00 -4.57867864E+00 -2.32152551E-02  7.42434578E+00 -4.99970271E-01
  3.21370699E-02  7.42434578E+00 -4.99970271E-01  3.21370699E-02
Constraint Structure                       R   N=          54
 -3.72927515E+00  8.94887144E-01 -1.87823188E+00 -3.66863282E+00 -2.88543600E+00
 -2.67937315E-01 -3.66105279E+00  3.96282527E-01  2.20657856E+00  1.11105217E-01
 -4.80882489E-01 -3.47581963E-02  1.40133323E+00  1.84673778E+00  1.48823045E-02
  1.41878542E+00 -2.77459920E+00 -3.37135850E-02  4.04474010E+00  1.77034899E+00
  2.40861636E-02 -2.72160895E+00 -5.25796762E-01  2.42750773E-03  5.87269958E-02
  4.36179598E+00 -3.57091783E-02  4.05367118E+00 -2.79150236E+00 -2.02197714E-02
  5.36966812E+00 -5.10348406E-01  1.70738928E-02  3.74439398E-01 -4.53874037E+00
 -5.85151856E-02  5.08487015E+00  3.54421119E+00  5.84322345E-02 -6.62450988E-01
  4.78311204E+00 -1.92612192E+00 -1.54197944E+00  4.39885628E+00  1.26418664E+00
  1.36741791E+00  5.86508550E+00  5.04997293E-01  5.06547618E+00 -4.57867864E+00
 -2.32152551E-02  7.42434578E+00 -4.99970271E-01  3.21370699E-02
Num ILSW                                   I              100
ILSW                                       I   N=         100
           0           1           0           0           2           0
           0           0           0           0           0          -1
           0           0           0           0           0           0
           0           0           0           0           1           0
           1           0           0           0           0           0
           0           0      100000           0          -1           0
           0           0           0           0           0           0
           0           0           0           1           1           0
           0           0           1           0           0           0
           0           0           4          40           0           0
           0           0           0           0           0           0
           0           0           0           0           0           0
           0           0           0           0           0           0
           0           0           0           0           0           0
           0           0           0           0           0           0
           0           0           0           0           0           0
           0           0           0           0
Num RLSW                                   I               40
RLSW                                       R   N=          40
  1.00000000E+00  1.00000000E+00  1.00000000E+00  1.00000000E+00  1.00000000E+00
  0.00000000E+00  0.00000000E+00  1.00000000E+00  0.00000000E+00  0.00000000E+00
  0.00000000E+00  0.00000000E+00  1.00000000E+00  0.00000000E+00  0.00000000E+00
  0.00000000E+00  0.00000000E+00  1.00000000E+00  0.00000000E+00  0.00000000E+00
  0.00000000E+00  0.00000000E+00  1.00000000E+00  0.00000000E+00  0.00000000E+00
  0.00000000E+00  0.00000000E+00  1.00000000E+00  0.00000000E+00  0.00000000E+00
  0.00000000E+00  0.00000000E+00  0.00000000E+00  0.00000000E+00  0.00000000E+00
  0.00000000E+00  0.00000000E+00  0.00000000E+00  1.00000000E+00  1.00000000E+00
MxBond                                     I                4
NBond                                      I   N=          18
           1           1           1           3           3           3
           3           4           4           3           3           1
           1           1           1           1           1           1
IBond                                      I   N=          72
           8           0           0           0           8           0
           0           0           8           0           0           0
           5           6           8           0           4           7
           9           0           4          10          12           0
           5          11          13           0           1           2
           3           4           5          14          15          16
           6          11          17           0           7          10
          18           0           6           0           0           0
           7           0           0           0           9           0
           0           0           9           0           0           0
           9           0           0           0          10           0
           0           0          11           0           0           0
RBond                                      R   N=          72
  1.00000000E+00  0.00000000E+00  0.00000000E+00  0.00000000E+00  1.00000000E+00
  0.00000000E+00  0.00000000E+00  0.00000000E+00  1.00000000E+00  0.00000000E+00
  0.00000000E+00  0.00000000E+00  1.50000000E+00  1.50000000E+00  1.00000000E+00
  0.00000000E+00  1.50000000E+00  1.50000000E+00  1.00000000E+00  0.00000000E+00
  1.50000000E+00  1.50000000E+00  1.00000000E+00  0.00000000E+00  1.50000000E+00
  1.50000000E+00  1.00000000E+00  0.00000000E+00  1.00000000E+00  1.00000000E+00
  1.00000000E+00  1.00000000E+00  1.00000000E+00  1.00000000E+00  1.00000000E+00
  1.00000000E+00  1.50000000E+00  1.50000000E+00  1.00000000E+00  0.00000000E+00
  1.50000000E+00  1.50000000E+00  1.00000000E+00  0.00000000E+00  1.00000000E+00
  0.00000000E+00  0.00000000E+00  0.00000000E+00  1.00000000E+00  0.00000000E+00
  0.00000000E+00  0.00000000E+00  1.00000000E+00  0.00000000E+00  0.00000000E+00
  0.00000000E+00  1.00000000E+00  0.00000000E+00  0.00000000E+00  0.00000000E+00
  1.00000000E+00  0.00000000E+00  0.00000000E+00  0.00000000E+00  1.00000000E+00
  0.00000000E+00  0.00000000E+00  0.00000000E+00  1.00000000E+00  0.00000000E+00
  0.00000000E+00  0.00000000E+00
Virial Ratio                               R      2.002281571584224E+00
SCF Energy                                 R     -6.053565834204838E+02
MP2 Energy                                 R     -6.068858887589604E+02
Total Energy                               R     -6.068858887589604E+02
Post-SCF wavefunction norm                 R      1.717733521094612E+00
RMS Force                                  R      2.515068731092747E-07
RMS Density                                R      2.684558776087782E-09
External E-field                           R   N=          35
  0.00000000E+00  0.00000000E+00  0.00000000E+00  0.00000000E+00  0.00000000E+00
  0.00000000E+00  0.00000000E+00  0.00000000E+00  0.00000000E+00  0.00000000E+00
  0.00000000E+00  0.00000000E+00  0.00000000E+00  0.00000000E+00  0.00000000E+00
  0.00000000E+00  0.00000000E+00  0.00000000E+00  0.00000000E+00  0.00000000E+00
  0.00000000E+00  0.00000000E+00  0.00000000E+00  0.00000000E+00  0.00000000E+00
  0.00000000E+00  0.00000000E+00  0.00000000E+00  0.00000000E+00  0.00000000E+00
  0.00000000E+00  0.00000000E+00  0.00000000E+00  0.00000000E+00  0.00000000E+00
IOpCl                                      I                0
IROHF                                      I                0
Alpha Orbital Energies                     R   N=         179
 -2.63360608E+01 -2.63307990E+01 -2.63297676E+01 -1.15075462E+01 -1.12675117E+01
 -1.12615437E+01 -1.12575626E+01 -1.12547265E+01 -1.12472725E+01 -1.12466130E+01
 -1.12319953E+01 -1.71025883E+00 -1.61892997E+00 -1.61455451E+00 -1.17549134E+00
 -1.06694201E+00 -1.05243375E+00 -9.68008689E-01 -9.32051512E-01 -8.55589643E-01
 -8.31511924E-01 -8.02876721E-01 -7.96272032E-01 -7.68082217E-01 -6.94981990E-01
 -6.94460809E-01 -6.83766845E-01 -6.57219622E-01 -6.46020217E-01 -6.42827565E-01
 -6.32925018E-01 -6.27978445E-01 -5.84995004E-01 -5.81102632E-01 -5.75175293E-01
 -5.50610693E-01 -5.04837018E-01 -5.03072348E-01 -5.01596751E-01 -3.54133924E-01
 -3.38479658E-01  1.12240443E-01  1.30653891E-01  2.32906787E-01  2.60483314E-01
  2.82463347E-01  3.02611655E-01  3.09168380E-01  3.17949653E-01  3.33577022E-01
  3.48992849E-01  3.66569957E-01  4.09372129E-01  4.38201451E-01  4.45697266E-01
  4.51396372E-01  4.74876051E-01  5.03307383E-01  5.43485808E-01  5.56154139E-01
  6.75516320E-01  6.86899056E-01  7.05826220E-01  7.14731213E-01  7.38365623E-01
  7.51538289E-01  7.60223455E-01  7.67048494E-01  7.94799462E-01  8.15138556E-01
  8.17066150E-01  8.27660717E-01  8.42346658E-01  8.59932295E-01  8.82849896E-01
  9.03873853E-01  9.21314235E-01  9.66230197E-01  9.83340733E-01  1.00444197E+00
  1.05021759E+00  1.08042161E+00  1.09325683E+00  1.10078611E+00  1.14178193E+00
  1.14901409E+00  1.15170602E+00  1.17298914E+00  1.19407580E+00  1.20774311E+00
  1.24413589E+00  1.28456160E+00  1.31246536E+00  1.33459404E+00  1.36342147E+00
  1.37273165E+00  1.39127443E+00  1.40895858E+00  1.44322886E+00  1.45818054E+00
  1.49319802E+00  1.50104473E+00  1.59432189E+00  1.63673468E+00  1.63984299E+00
  1.64409426E+00  1.67353247E+00  1.68636167E+00  1.69338347E+00  1.70745324E+00
  1.71459050E+00  1.74668651E+00  1.75476642E+00  1.76530843E+00  1.82135947E+00
  1.84229181E+00  1.93870649E+00  1.95626741E+00  2.02574601E+00  2.04132929E+00
  2.06228549E+00  2.07686591E+00  2.12558793E+00  2.13925383E+00  2.15267298E+00
  2.16991283E+00  2.18346873E+00  2.21916304E+00  2.22251364E+00  2.24762492E+00
  2.26709472E+00  2.31710631E+00  2.32587046E+00  2.33885656E+00  2.35732015E+00
  2.38003162E+00  2.38439244E+00  2.38631359E+00  2.44637358E+00  2.46728782E+00
  2.47308947E+00  2.49553357E+00  2.52753116E+00  2.55501154E+00  2.59703293E+00
  2.62035026E+00  2.63652524E+00  2.65740388E+00  2.68597847E+00  2.70792606E+00
  2.73266113E+00  2.83372912E+00  2.88818985E+00  2.94665060E+00  2.98665041E+00
  3.01388982E+00  3.05321522E+00  3.09346907E+00  3.10568921E+00  3.11834346E+00
  3.14922346E+00  3.24882916E+00  3.31506539E+00  3.40083838E+00  3.40638622E+00
  3.50161000E+00  3.51767395E+00  3.77849558E+00  4.49286011E+00  4.51430151E+00
  4.52914939E+00  4.63929807E+00  4.68856087E+00  4.75797375E+00  4.79633221E+00
  4.88224369E+00  5.15307658E+00  5.22336512E+00  6.01554846E+00
Alpha MO coefficients                      R   N=       32041
 -1.68642686E-03  1.11804206E-04  3.96631130E-06 -2.20694778E-06 -1.36475377E-06
 -5.07143319E-04 -4.57145567E-05  1.89815044E-04 -9.92312076E-05  9.83496950E-05
  1.96712683E-06  7.01961138E-05  1.59646949E-05 -6.42508859E-06  4.46526882E-05
  9.94441859E-01  1.79348998E-02  3.60130195E-04  8.61282723E-04  1.00312772E-04
  7.49834722E-03 -2.93379503E-04 -7.74557101E-04 -8.58342314E-05 -4.52233851E-03
 -4.91697648E-03 -4.48969282E-03 -2.26796997E-04 -2.54171674E-05 -5.78065193E-05
 -1.41412854E-03  1.34907435E-04  6.14638721E-06 -2.77790138E-06 -6.15733119E-07
 -5.65089013E-04 -5.15752069E-05  1.63671216E-04  1.50618118E-04  1.10701228E-04
  3.70299339E-05  5.97496081E-05  1.35151839E-05  9.95611824E-06 -5.94562629E-05
  5.47462826E-06  1.00195690E-04 -1.52374275E-05 -1.10585050E-06 -1.64074732E-06
  6.55446597E-05  1.41217809E-03 -2.15265707E-04  1.26571073E-05 -9.07965813E-05
 -1.03477561E-05  6.59128731E-07 -5.57930890E-05 -1.46945547E-06 -1.99169307E-06
  1.53576704E-06  1.24415983E-05  2.20777806E-05 -1.76263021E-05  1.43918661E-06