19078541                                                                
Freq      RMP2-FC                                                     6-31G(d)            
Number of atoms                            I               22
Info1-9                                    I   N=           9
          34          32        1002           0           0         100
           6           2           1
Charge                                     I                0
Multiplicity                               I                1
Number of electrons                        I               78
Number of alpha electrons                  I               39
Number of beta electrons                   I               39
Number of basis functions                  I              174
Number of independent functions            I              174
Number of point charges in /Mol/           I                0
Number of translation vectors              I                0
Atomic numbers                             I   N=          22
           8           8           8           6           6           6
           6           6           6           6           1           1
           1           1           1           1           1           1
           1           1           1           1
Nuclear charges                            R   N=          22
  8.00000000E+00  8.00000000E+00  8.00000000E+00  6.00000000E+00  6.00000000E+00
  6.00000000E+00  6.00000000E+00  6.00000000E+00  6.00000000E+00  6.00000000E+00
  1.00000000E+00  1.00000000E+00  1.00000000E+00  1.00000000E+00  1.00000000E+00
  1.00000000E+00  1.00000000E+00  1.00000000E+00  1.00000000E+00  1.00000000E+00
  1.00000000E+00  1.00000000E+00
Current cartesian coordinates              R   N=          66
 -1.85107622E+00 -1.57097766E-01 -1.36651985E+00 -9.25914718E-01  3.79598208E+00
  1.69692916E-01 -3.78427162E+00 -1.28688211E-01  2.51520309E+00  3.49320489E+00
 -1.02538597E+00 -5.94723793E-02  2.43177123E+00  1.19771099E+00 -1.60086623E+00
  3.31308506E+00 -4.92680734E-01  2.77310832E+00  6.21346177E+00 -1.56022760E+00
 -8.59031457E-01 -2.04598064E-01  1.85667808E+00 -7.93997377E-01 -3.84471445E+00
 -6.49258917E-01  2.89646164E-01 -5.92727665E+00 -1.98376293E+00 -1.09579264E+00
  2.33793489E+00 -2.69081591E+00 -4.93084785E-01  3.59555411E+00  2.88758304E+00
 -1.33832605E+00  2.41291333E+00  7.15688789E-01 -3.61606289E+00  4.36890131E+00
  1.22184643E+00  3.25581315E+00  4.11406973E+00 -2.06151005E+00  3.85665285E+00
  1.35478448E+00 -2.31664673E-01  3.38413404E+00  7.42430068E+00  6.69260354E-02
 -4.45860286E-01  6.96871797E+00 -3.19005894E+00  1.65253679E-01  6.34183141E+00
 -1.95971005E+00 -2.88474724E+00 -6.72551790E+00 -7.12732130E-01 -2.51480301E+00
 -7.38240683E+00 -2.55352642E+00  2.44031021E-01 -5.17058541E+00 -3.63203248E+00
 -2.08157615E+00
Force Field                                I                0
Int Atom Types                             I   N=          22
           0           0           0           0           0           0
           0           0           0           0           0           0
           0           0           0           0           0           0
           0           0           0           0
MM charges                                 R   N=          22
  0.00000000E+00  0.00000000E+00  0.00000000E+00  0.00000000E+00  0.00000000E+00
  0.00000000E+00  0.00000000E+00  0.00000000E+00  0.00000000E+00  0.00000000E+00
  0.00000000E+00  0.00000000E+00  0.00000000E+00  0.00000000E+00  0.00000000E+00
  0.00000000E+00  0.00000000E+00  0.00000000E+00  0.00000000E+00  0.00000000E+00
  0.00000000E+00  0.00000000E+00
Integer atomic weights                     I   N=          22
          16          16          16          12          12          12
          12          12          12          12           1           1
           1           1           1           1           1           1
           1           1           1           1
Real atomic weights                        R   N=          22
  1.59949146E+01  1.59949146E+01  1.59949146E+01  1.20000000E+01  1.20000000E+01
  1.20000000E+01  1.20000000E+01  1.20000000E+01  1.20000000E+01  1.20000000E+01
  1.00782504E+00  1.00782504E+00  1.00782504E+00  1.00782504E+00  1.00782504E+00
  1.00782504E+00  1.00782504E+00  1.00782504E+00  1.00782504E+00  1.00782504E+00
  1.00782504E+00  1.00782504E+00
Atom fragment info                         I   N=          22
           0           0           0           0           0           0
           0           0           0           0           0           0
           0           0           0           0           0           0
           0           0           0           0
Atom residue num                           I   N=          22
           0           0           0           0           0           0
           0           0           0           0           0           0
           0           0           0           0           0           0
           0           0           0           0
Nuclear spins                              I   N=          22
           0           0           0           0           0           0
           0           0           0           0           1           1
           1           1           1           1           1           1
           1           1           1           1
Nuclear ZEff                               R   N=          22
 -5.60000000E+00 -5.60000000E+00 -5.60000000E+00 -3.60000000E+00 -3.60000000E+00
 -3.60000000E+00 -3.60000000E+00 -3.60000000E+00 -3.60000000E+00 -3.60000000E+00
 -1.00000000E+00 -1.00000000E+00 -1.00000000E+00 -1.00000000E+00 -1.00000000E+00
 -1.00000000E+00 -1.00000000E+00 -1.00000000E+00 -1.00000000E+00 -1.00000000E+00
 -1.00000000E+00 -1.00000000E+00
Nuclear QMom                               R   N=          22
  0.00000000E+00  0.00000000E+00  0.00000000E+00  0.00000000E+00  0.00000000E+00
  0.00000000E+00  0.00000000E+00  0.00000000E+00  0.00000000E+00  0.00000000E+00
  0.00000000E+00  0.00000000E+00  0.00000000E+00  0.00000000E+00  0.00000000E+00
  0.00000000E+00  0.00000000E+00  0.00000000E+00  0.00000000E+00  0.00000000E+00
  0.00000000E+00  0.00000000E+00
Nuclear GFac                               R   N=          22
  0.00000000E+00  0.00000000E+00  0.00000000E+00  0.00000000E+00  0.00000000E+00
  0.00000000E+00  0.00000000E+00  0.00000000E+00  0.00000000E+00  0.00000000E+00
  2.79284600E+00  2.79284600E+00  2.79284600E+00  2.79284600E+00  2.79284600E+00
  2.79284600E+00  2.79284600E+00  2.79284600E+00  2.79284600E+00  2.79284600E+00
  2.79284600E+00  2.79284600E+00
MicOpt                                     I   N=          22
          -1          -1          -1          -1          -1          -1
          -1          -1          -1          -1          -1          -1
          -1          -1          -1          -1          -1          -1
          -1          -1          -1          -1
Number of contracted shells                I               64
Number of primitive shells                 I              158
Pure/Cartesian d shells                    I                1
Pure/Cartesian f shells                    I                0
Highest angular momentum                   I                2
Largest degree of contraction              I                6
Shell types                                I   N=          64
           0          -1          -1           2           0          -1
          -1           2           0          -1          -1           2
           0          -1          -1           2           0          -1
          -1           2           0          -1          -1           2
           0          -1          -1           2           0          -1
          -1           2           0          -1          -1           2
           0          -1          -1           2           0           0
           0           0           0           0           0           0
           0           0           0           0           0           0
           0           0           0           0           0           0
           0           0           0           0
Number of primitives per shell             I   N=          64
           6           3           1           1           6           3
           1           1           6           3           1           1
           6           3           1           1           6           3
           1           1           6           3           1           1
           6           3           1           1           6           3
           1           1           6           3           1           1
           6           3           1           1           3           1
           3           1           3           1           3           1
           3           1           3           1           3           1
           3           1           3           1           3           1
           3           1           3           1
Shell to atom map                          I   N=          64
           1           1           1           1           2           2
           2           2           3           3           3           3
           4           4           4           4           5           5
           5           5           6           6           6           6
           7           7           7           7           8           8
           8           8           9           9           9           9
          10          10          10          10          11          11
          12          12          13          13          14          14
          15          15          16          16          17          17
          18          18          19          19          20          20
          21          21          22          22
Primitive exponents                        R   N=         158
  5.48467166E+03  8.25234946E+02  1.88046958E+02  5.29645000E+01  1.68975704E+01
  5.79963534E+00  1.55396162E+01  3.59993359E+00  1.01376175E+00  2.70005823E-01
  8.00000000E-01  5.48467166E+03  8.25234946E+02  1.88046958E+02  5.29645000E+01
  1.68975704E+01  5.79963534E+00  1.55396162E+01  3.59993359E+00  1.01376175E+00
  2.70005823E-01  8.00000000E-01  5.48467166E+03  8.25234946E+02  1.88046958E+02
  5.29645000E+01  1.68975704E+01  5.79963534E+00  1.55396162E+01  3.59993359E+00
  1.01376175E+00  2.70005823E-01  8.00000000E-01  3.04752488E+03  4.57369518E+02
  1.03948685E+02  2.92101553E+01  9.28666296E+00  3.16392696E+00  7.86827235E+00
  1.88128854E+00  5.44249258E-01  1.68714478E-01  8.00000000E-01  3.04752488E+03
  4.57369518E+02  1.03948685E+02  2.92101553E+01  9.28666296E+00  3.16392696E+00
  7.86827235E+00  1.88128854E+00  5.44249258E-01  1.68714478E-01  8.00000000E-01
  3.04752488E+03  4.57369518E+02  1.03948685E+02  2.92101553E+01  9.28666296E+00
  3.16392696E+00  7.86827235E+00  1.88128854E+00  5.44249258E-01  1.68714478E-01
  8.00000000E-01  3.04752488E+03  4.57369518E+02  1.03948685E+02  2.92101553E+01
  9.28666296E+00  3.16392696E+00  7.86827235E+00  1.88128854E+00  5.44249258E-01
  1.68714478E-01  8.00000000E-01  3.04752488E+03  4.57369518E+02  1.03948685E+02
  2.92101553E+01  9.28666296E+00  3.16392696E+00  7.86827235E+00  1.88128854E+00
  5.44249258E-01  1.68714478E-01  8.00000000E-01  3.04752488E+03  4.57369518E+02
  1.03948685E+02  2.92101553E+01  9.28666296E+00  3.16392696E+00  7.86827235E+00
  1.88128854E+00  5.44249258E-01  1.68714478E-01  8.00000000E-01  3.04752488E+03
  4.57369518E+02  1.03948685E+02  2.92101553E+01  9.28666296E+00  3.16392696E+00
  7.86827235E+00  1.88128854E+00  5.44249258E-01  1.68714478E-01  8.00000000E-01
  1.87311370E+01  2.82539436E+00  6.40121692E-01  1.61277759E-01  1.87311370E+01
  2.82539436E+00  6.40121692E-01  1.61277759E-01  1.87311370E+01  2.82539436E+00
  6.40121692E-01  1.61277759E-01  1.87311370E+01  2.82539436E+00  6.40121692E-01
  1.61277759E-01  1.87311370E+01  2.82539436E+00  6.40121692E-01  1.61277759E-01
  1.87311370E+01  2.82539436E+00  6.40121692E-01  1.61277759E-01  1.87311370E+01
  2.82539436E+00  6.40121692E-01  1.61277759E-01  1.87311370E+01  2.82539436E+00
  6.40121692E-01  1.61277759E-01  1.87311370E+01  2.82539436E+00  6.40121692E-01
  1.61277759E-01  1.87311370E+01  2.82539436E+00  6.40121692E-01  1.61277759E-01
  1.87311370E+01  2.82539436E+00  6.40121692E-01  1.61277759E-01  1.87311370E+01
  2.82539436E+00  6.40121692E-01  1.61277759E-01
Contraction coefficients                   R   N=         158
  1.83107443E-03  1.39501722E-02  6.84450781E-02  2.32714336E-01  4.70192898E-01
  3.58520853E-01 -1.10777550E-01 -1.48026263E-01  1.13076702E+00  1.00000000E+00
  1.00000000E+00  1.83107443E-03  1.39501722E-02  6.84450781E-02  2.32714336E-01
  4.70192898E-01  3.58520853E-01 -1.10777550E-01 -1.48026263E-01  1.13076702E+00
  1.00000000E+00  1.00000000E+00  1.83107443E-03  1.39501722E-02  6.84450781E-02
  2.32714336E-01  4.70192898E-01  3.58520853E-01 -1.10777550E-01 -1.48026263E-01
  1.13076702E+00  1.00000000E+00  1.00000000E+00  1.83473713E-03  1.40373228E-02
  6.88426223E-02  2.32184443E-01  4.67941348E-01  3.62311985E-01 -1.19332420E-01
 -1.60854152E-01  1.14345644E+00  1.00000000E+00  1.00000000E+00  1.83473713E-03
  1.40373228E-02  6.88426223E-02  2.32184443E-01  4.67941348E-01  3.62311985E-01
 -1.19332420E-01 -1.60854152E-01  1.14345644E+00  1.00000000E+00  1.00000000E+00
  1.83473713E-03  1.40373228E-02  6.88426223E-02  2.32184443E-01  4.67941348E-01
  3.62311985E-01 -1.19332420E-01 -1.60854152E-01  1.14345644E+00  1.00000000E+00
  1.00000000E+00  1.83473713E-03  1.40373228E-02  6.88426223E-02  2.32184443E-01
  4.67941348E-01  3.62311985E-01 -1.19332420E-01 -1.60854152E-01  1.14345644E+00
  1.00000000E+00  1.00000000E+00  1.83473713E-03  1.40373228E-02  6.88426223E-02
  2.32184443E-01  4.67941348E-01  3.62311985E-01 -1.19332420E-01 -1.60854152E-01
  1.14345644E+00  1.00000000E+00  1.00000000E+00  1.83473713E-03  1.40373228E-02
  6.88426223E-02  2.32184443E-01  4.67941348E-01  3.62311985E-01 -1.19332420E-01
 -1.60854152E-01  1.14345644E+00  1.00000000E+00  1.00000000E+00  1.83473713E-03
  1.40373228E-02  6.88426223E-02  2.32184443E-01  4.67941348E-01  3.62311985E-01
 -1.19332420E-01 -1.60854152E-01  1.14345644E+00  1.00000000E+00  1.00000000E+00
  3.34946043E-02  2.34726953E-01  8.13757326E-01  1.00000000E+00  3.34946043E-02
  2.34726953E-01  8.13757326E-01  1.00000000E+00  3.34946043E-02  2.34726953E-01
  8.13757326E-01  1.00000000E+00  3.34946043E-02  2.34726953E-01  8.13757326E-01
  1.00000000E+00  3.34946043E-02  2.34726953E-01  8.13757326E-01  1.00000000E+00
  3.34946043E-02  2.34726953E-01  8.13757326E-01  1.00000000E+00  3.34946043E-02
  2.34726953E-01  8.13757326E-01  1.00000000E+00  3.34946043E-02  2.34726953E-01
  8.13757326E-01  1.00000000E+00  3.34946043E-02  2.34726953E-01  8.13757326E-01
  1.00000000E+00  3.34946043E-02  2.34726953E-01  8.13757326E-01  1.00000000E+00
  3.34946043E-02  2.34726953E-01  8.13757326E-01  1.00000000E+00  3.34946043E-02
  2.34726953E-01  8.13757326E-01  1.00000000E+00
P(S=P) Contraction coefficients            R   N=         158
  0.00000000E+00  0.00000000E+00  0.00000000E+00  0.00000000E+00  0.00000000E+00
  0.00000000E+00  7.08742682E-02  3.39752839E-01  7.27158577E-01  1.00000000E+00
  0.00000000E+00  0.00000000E+00  0.00000000E+00  0.00000000E+00  0.00000000E+00
  0.00000000E+00  0.00000000E+00  7.08742682E-02  3.39752839E-01  7.27158577E-01
  1.00000000E+00  0.00000000E+00  0.00000000E+00  0.00000000E+00  0.00000000E+00
  0.00000000E+00  0.00000000E+00  0.00000000E+00  7.08742682E-02  3.39752839E-01
  7.27158577E-01  1.00000000E+00  0.00000000E+00  0.00000000E+00  0.00000000E+00
  0.00000000E+00  0.00000000E+00  0.00000000E+00  0.00000000E+00  6.89990666E-02
  3.16423961E-01  7.44308291E-01  1.00000000E+00  0.00000000E+00  0.00000000E+00
  0.00000000E+00  0.00000000E+00  0.00000000E+00  0.00000000E+00  0.00000000E+00
  6.89990666E-02  3.16423961E-01  7.44308291E-01  1.00000000E+00  0.00000000E+00
  0.00000000E+00  0.00000000E+00  0.00000000E+00  0.00000000E+00  0.00000000E+00
  0.00000000E+00  6.89990666E-02  3.16423961E-01  7.44308291E-01  1.00000000E+00
  0.00000000E+00  0.00000000E+00  0.00000000E+00  0.00000000E+00  0.00000000E+00
  0.00000000E+00  0.00000000E+00  6.89990666E-02  3.16423961E-01  7.44308291E-01
  1.00000000E+00  0.00000000E+00  0.00000000E+00  0.00000000E+00  0.00000000E+00
  0.00000000E+00  0.00000000E+00  0.00000000E+00  6.89990666E-02  3.16423961E-01
  7.44308291E-01  1.00000000E+00  0.00000000E+00  0.00000000E+00  0.00000000E+00
  0.00000000E+00  0.00000000E+00  0.00000000E+00  0.00000000E+00  6.89990666E-02
  3.16423961E-01  7.44308291E-01  1.00000000E+00  0.00000000E+00  0.00000000E+00
  0.00000000E+00  0.00000000E+00  0.00000000E+00  0.00000000E+00  0.00000000E+00
  6.89990666E-02  3.16423961E-01  7.44308291E-01  1.00000000E+00  0.00000000E+00
  0.00000000E+00  0.00000000E+00  0.00000000E+00  0.00000000E+00  0.00000000E+00
  0.00000000E+00  0.00000000E+00  0.00000000E+00  0.00000000E+00  0.00000000E+00
  0.00000000E+00  0.00000000E+00  0.00000000E+00  0.00000000E+00  0.00000000E+00
  0.00000000E+00  0.00000000E+00  0.00000000E+00  0.00000000E+00  0.00000000E+00
  0.00000000E+00  0.00000000E+00  0.00000000E+00  0.00000000E+00  0.00000000E+00
  0.00000000E+00  0.00000000E+00  0.00000000E+00  0.00000000E+00  0.00000000E+00
  0.00000000E+00  0.00000000E+00  0.00000000E+00  0.00000000E+00  0.00000000E+00
  0.00000000E+00  0.00000000E+00  0.00000000E+00  0.00000000E+00  0.00000000E+00
  0.00000000E+00  0.00000000E+00  0.00000000E+00  0.00000000E+00  0.00000000E+00
  0.00000000E+00  0.00000000E+00  0.00000000E+00
Coordinates of each shell                  R   N=         192
 -1.85107622E+00 -1.57097766E-01 -1.36651985E+00 -1.85107622E+00 -1.57097766E-01
 -1.36651985E+00 -1.85107622E+00 -1.57097766E-01 -1.36651985E+00 -1.85107622E+00
 -1.57097766E-01 -1.36651985E+00 -9.25914718E-01  3.79598208E+00  1.69692916E-01
 -9.25914718E-01  3.79598208E+00  1.69692916E-01 -9.25914718E-01  3.79598208E+00
  1.69692916E-01 -9.25914718E-01  3.79598208E+00  1.69692916E-01 -3.78427162E+00
 -1.28688211E-01  2.51520309E+00 -3.78427162E+00 -1.28688211E-01  2.51520309E+00
 -3.78427162E+00 -1.28688211E-01  2.51520309E+00 -3.78427162E+00 -1.28688211E-01
  2.51520309E+00  3.49320489E+00 -1.02538597E+00 -5.94723793E-02  3.49320489E+00
 -1.02538597E+00 -5.94723793E-02  3.49320489E+00 -1.02538597E+00 -5.94723793E-02
  3.49320489E+00 -1.02538597E+00 -5.94723793E-02  2.43177123E+00  1.19771099E+00
 -1.60086623E+00  2.43177123E+00  1.19771099E+00 -1.60086623E+00  2.43177123E+00
  1.19771099E+00 -1.60086623E+00  2.43177123E+00  1.19771099E+00 -1.60086623E+00
  3.31308506E+00 -4.92680734E-01  2.77310832E+00  3.31308506E+00 -4.92680734E-01
  2.77310832E+00  3.31308506E+00 -4.92680734E-01  2.77310832E+00  3.31308506E+00
 -4.92680734E-01  2.77310832E+00  6.21346177E+00 -1.56022760E+00 -8.59031457E-01
  6.21346177E+00 -1.56022760E+00 -8.59031457E-01  6.21346177E+00 -1.56022760E+00
 -8.59031457E-01  6.21346177E+00 -1.56022760E+00 -8.59031457E-01 -2.04598064E-01
  1.85667808E+00 -7.93997377E-01 -2.04598064E-01  1.85667808E+00 -7.93997377E-01
 -2.04598064E-01  1.85667808E+00 -7.93997377E-01 -2.04598064E-01  1.85667808E+00
 -7.93997377E-01 -3.84471445E+00 -6.49258917E-01  2.89646164E-01 -3.84471445E+00
 -6.49258917E-01  2.89646164E-01 -3.84471445E+00 -6.49258917E-01  2.89646164E-01
 -3.84471445E+00 -6.49258917E-01  2.89646164E-01 -5.92727665E+00 -1.98376293E+00
 -1.09579264E+00 -5.92727665E+00 -1.98376293E+00 -1.09579264E+00 -5.92727665E+00
 -1.98376293E+00 -1.09579264E+00 -5.92727665E+00 -1.98376293E+00 -1.09579264E+00
  2.33793489E+00 -2.69081591E+00 -4.93084785E-01  2.33793489E+00 -2.69081591E+00
 -4.93084785E-01  3.59555411E+00  2.88758304E+00 -1.33832605E+00  3.59555411E+00
  2.88758304E+00 -1.33832605E+00  2.41291333E+00  7.15688789E-01 -3.61606289E+00
  2.41291333E+00  7.15688789E-01 -3.61606289E+00  4.36890131E+00  1.22184643E+00
  3.25581315E+00  4.36890131E+00  1.22184643E+00  3.25581315E+00  4.11406973E+00
 -2.06151005E+00  3.85665285E+00  4.11406973E+00 -2.06151005E+00  3.85665285E+00
  1.35478448E+00 -2.31664673E-01  3.38413404E+00  1.35478448E+00 -2.31664673E-01
  3.38413404E+00  7.42430068E+00  6.69260354E-02 -4.45860286E-01  7.42430068E+00
  6.69260354E-02 -4.45860286E-01  6.96871797E+00 -3.19005894E+00  1.65253679E-01
  6.96871797E+00 -3.19005894E+00  1.65253679E-01  6.34183141E+00 -1.95971005E+00
 -2.88474724E+00  6.34183141E+00 -1.95971005E+00 -2.88474724E+00 -6.72551790E+00
 -7.12732130E-01 -2.51480301E+00 -6.72551790E+00 -7.12732130E-01 -2.51480301E+00
 -7.38240683E+00 -2.55352642E+00  2.44031021E-01 -7.38240683E+00 -2.55352642E+00
  2.44031021E-01 -5.17058541E+00 -3.63203248E+00 -2.08157615E+00 -5.17058541E+00
 -3.63203248E+00 -2.08157615E+00
Constraint Structure                       R   N=          66
 -1.85107622E+00 -1.57097766E-01 -1.36651985E+00 -9.25914718E-01  3.79598208E+00
  1.69692916E-01 -3.78427162E+00 -1.28688211E-01  2.51520309E+00  3.49320489E+00
 -1.02538597E+00 -5.94723793E-02  2.43177123E+00  1.19771099E+00 -1.60086623E+00
  3.31308506E+00 -4.92680734E-01  2.77310832E+00  6.21346177E+00 -1.56022760E+00
 -8.59031457E-01 -2.04598064E-01  1.85667808E+00 -7.93997377E-01 -3.84471445E+00
 -6.49258917E-01  2.89646164E-01 -5.92727665E+00 -1.98376293E+00 -1.09579264E+00
  2.33793489E+00 -2.69081591E+00 -4.93084785E-01  3.59555411E+00  2.88758304E+00
 -1.33832605E+00  2.41291333E+00  7.15688789E-01 -3.61606289E+00  4.36890131E+00
  1.22184643E+00  3.25581315E+00  4.11406973E+00 -2.06151005E+00  3.85665285E+00
  1.35478448E+00 -2.31664673E-01  3.38413404E+00  7.42430068E+00  6.69260354E-02
 -4.45860286E-01  6.96871797E+00 -3.19005894E+00  1.65253679E-01  6.34183141E+00
 -1.95971005E+00 -2.88474724E+00 -6.72551790E+00 -7.12732130E-01 -2.51480301E+00
 -7.38240683E+00 -2.55352642E+00  2.44031021E-01 -5.17058541E+00 -3.63203248E+00
 -2.08157615E+00
Num ILSW                                   I              100
ILSW                                       I   N=         100
           0           1           0           1           2           0
           0           0           0           0           0          -1
           0           0           0           0           0           0
           0           0           0           0           1           0
           1           0           0           0           0           0
           0           0      100000           0          -1           0
           0           0           0           0           0           0
           0           0           0           1           1           0
           0           0           1           0           0           0
           0           0           4          40           0           0
           0           0           0           0           0           0
           0           0           0           0           0           0
           0           0           0           0           0           0
           0           0           0           0           0           0
           0           0           0           0           0           0
           0           0           0           0           0           0
           0           0           0           0
Num RLSW                                   I               40
RLSW                                       R   N=          40
  1.00000000E+00  1.00000000E+00  1.00000000E+00  1.00000000E+00  1.00000000E+00
  0.00000000E+00  0.00000000E+00  1.00000000E+00  0.00000000E+00  0.00000000E+00
  0.00000000E+00  0.00000000E+00  1.00000000E+00  0.00000000E+00  0.00000000E+00
  0.00000000E+00  0.00000000E+00  1.00000000E+00  0.00000000E+00  0.00000000E+00
  0.00000000E+00  0.00000000E+00  1.00000000E+00  0.00000000E+00  0.00000000E+00
  0.00000000E+00  0.00000000E+00  1.00000000E+00  0.00000000E+00  0.00000000E+00
  0.00000000E+00  0.00000000E+00  0.00000000E+00  0.00000000E+00  0.00000000E+00
  0.00000000E+00  0.00000000E+00  0.00000000E+00  1.00000000E+00  1.00000000E+00
MxBond                                     I                4
NBond                                      I   N=          22
           2           1           1           4           4           4
           4           3           3           4           1           1
           1           1           1           1           1           1
           1           1           1           1
IBond                                      I   N=          88
           8           9           0           0           8           0
           0           0           9           0           0           0
           5           6           7          11           4           8
          12          13           4          14          15          16
           4          17          18          19           1           2
           5           0           1           3          10           0
           9          20          21          22           4           0
           0           0           5           0           0           0
           5           0           0           0           6           0
           0           0           6           0           0           0
           6           0           0           0           7           0
           0           0           7           0           0           0
           7           0           0           0          10           0
           0           0          10           0           0           0
          10           0           0           0
RBond                                      R   N=          88
  1.50000000E+00  1.50000000E+00  0.00000000E+00  0.00000000E+00  2.00000000E+00
  0.00000000E+00  0.00000000E+00  0.00000000E+00  2.00000000E+00  0.00000000E+00
  0.00000000E+00  0.00000000E+00  1.00000000E+00  1.00000000E+00  1.00000000E+00
  1.00000000E+00  1.00000000E+00  1.00000000E+00  1.00000000E+00  1.00000000E+00
  1.00000000E+00  1.00000000E+00  1.00000000E+00  1.00000000E+00  1.00000000E+00
  1.00000000E+00  1.00000000E+00  1.00000000E+00  1.50000000E+00  2.00000000E+00
  1.00000000E+00  0.00000000E+00  1.50000000E+00  2.00000000E+00  1.00000000E+00
  0.00000000E+00  1.00000000E+00  1.00000000E+00  1.00000000E+00  1.00000000E+00
  1.00000000E+00  0.00000000E+00  0.00000000E+00  0.00000000E+00  1.00000000E+00
  0.00000000E+00  0.00000000E+00  0.00000000E+00  1.00000000E+00  0.00000000E+00
  0.00000000E+00  0.00000000E+00  1.00000000E+00  0.00000000E+00  0.00000000E+00
  0.00000000E+00  1.00000000E+00  0.00000000E+00  0.00000000E+00  0.00000000E+00
  1.00000000E+00  0.00000000E+00  0.00000000E+00  0.00000000E+00  1.00000000E+00
  0.00000000E+00  0.00000000E+00  0.00000000E+00  1.00000000E+00  0.00000000E+00
  0.00000000E+00  0.00000000E+00  1.00000000E+00  0.00000000E+00  0.00000000E+00
  0.00000000E+00  1.00000000E+00  0.00000000E+00  0.00000000E+00  0.00000000E+00
  1.00000000E+00  0.00000000E+00  0.00000000E+00  0.00000000E+00  1.00000000E+00
  0.00000000E+00  0.00000000E+00  0.00000000E+00
Virial Ratio                               R      2.002622813750544E+00
SCF Energy                                 R     -4.966799931590356E+02
MP2 Energy                                 R     -4.981206390503758E+02
Total Energy                               R     -4.981206390503758E+02
Post-SCF wavefunction norm                 R      1.705837472189014E+00
RMS Force                                  R      3.463425769515157E-07
RMS Density                                R      3.756865656239787E-09
External E-field                           R   N=          35
  0.00000000E+00  0.00000000E+00  0.00000000E+00  0.00000000E+00  0.00000000E+00
  0.00000000E+00  0.00000000E+00  0.00000000E+00  0.00000000E+00  0.00000000E+00
  0.00000000E+00  0.00000000E+00  0.00000000E+00  0.00000000E+00  0.00000000E+00
  0.00000000E+00  0.00000000E+00  0.00000000E+00  0.00000000E+00  0.00000000E+00
  0.00000000E+00  0.00000000E+00  0.00000000E+00  0.00000000E+00  0.00000000E+00
  0.00000000E+00  0.00000000E+00  0.00000000E+00  0.00000000E+00  0.00000000E+00
  0.00000000E+00  0.00000000E+00  0.00000000E+00  0.00000000E+00  0.00000000E+00
IOpCl                                      I                0
IROHF                                      I                0
Alpha Orbital Energies                     R   N=         174
 -2.06324860E+01 -2.05743509E+01 -2.05735285E+01 -1.14078054E+01 -1.14017644E+01
 -1.12546813E+01 -1.12503577E+01 -1.12459344E+01 -1.12252848E+01 -1.12161447E+01
 -1.48441942E+00 -1.40460301E+00 -1.36200506E+00 -1.11352944E+00 -1.04256490E+00
 -9.90726560E-01 -9.38278687E-01 -8.67198313E-01 -7.93951049E-01 -7.35569090E-01
 -7.00011734E-01 -6.95885893E-01 -6.79362260E-01 -6.48079352E-01 -6.27397899E-01
 -6.19380823E-01 -5.92324836E-01 -5.89387768E-01 -5.69190112E-01 -5.54220358E-01
 -5.50734391E-01 -5.39372993E-01 -5.24093213E-01 -4.94436029E-01 -4.84028920E-01
 -4.77964953E-01 -4.70374901E-01 -4.67956092E-01 -4.35881782E-01  1.41835071E-01
  1.82826223E-01  2.20057801E-01  2.42933746E-01  2.62872229E-01  2.82548435E-01
  2.90155520E-01  2.92167320E-01  3.00889259E-01  3.10197160E-01  3.16639255E-01
  3.23902122E-01  3.41798104E-01  3.55492678E-01  3.71826680E-01  3.94113896E-01
  4.07308904E-01  4.16790202E-01  4.32794625E-01  4.67959696E-01  4.95506381E-01
  5.05249901E-01  5.50928002E-01  6.89736898E-01  7.04922483E-01  7.18544099E-01
  7.31615400E-01  7.41046821E-01  7.71767704E-01  7.90011743E-01  7.91847094E-01
  8.23808851E-01  8.31897120E-01  8.47941916E-01  8.73042487E-01  9.07940676E-01
  9.32314612E-01  9.38524490E-01  9.60729132E-01  9.73885759E-01  9.99794843E-01
  1.00460935E+00  1.02877702E+00  1.05098157E+00  1.07649269E+00  1.10301003E+00
  1.10944705E+00  1.11879368E+00  1.14412009E+00  1.15419755E+00  1.16207568E+00