opt=(Tight,CalcAll)                                                     
Freq      RMP2-FC                                                     6-31G(d)            
Number of atoms                            I               15
Info1-9                                    I   N=           9
          24          24        1002           0           0         100
           6           2           1
Charge                                     I                0
Multiplicity                               I                1
Number of electrons                        I               70
Number of alpha electrons                  I               35
Number of beta electrons                   I               35
Number of basis functions                  I              160
Number of independent functions            I              160
Number of point charges in /Mol/           I                0
Number of translation vectors              I                0
Atomic numbers                             I   N=          15
           7           6           6           6           7           6
           7           6           7           7           1           1
           1           1           1
Nuclear charges                            R   N=          15
  7.00000000E+00  6.00000000E+00  6.00000000E+00  6.00000000E+00  7.00000000E+00
  6.00000000E+00  7.00000000E+00  6.00000000E+00  7.00000000E+00  7.00000000E+00
  1.00000000E+00  1.00000000E+00  1.00000000E+00  1.00000000E+00  1.00000000E+00
Current cartesian coordinates              R   N=          45
  3.68193365E+00  9.93970354E-01  1.88866214E-02  2.32082053E+00 -1.14437726E+00
 -2.09902359E-03 -3.35820126E-01 -9.79553390E-01 -2.52240964E-02 -1.34584991E+00
  1.46381577E+00 -1.27757354E-02 -5.95538598E-02  3.65122928E+00 -5.81520748E-03
  2.43446860E+00  3.22510637E+00  1.16884043E-02 -2.19841582E+00 -2.80767848E+00
  2.95116248E-03 -4.31608602E+00 -1.46873784E+00  1.46738745E-02 -3.92292035E+00
  1.09399798E+00  3.05756241E-03  3.54612872E+00 -3.40938636E+00 -1.23927725E-01
  3.63283072E+00  4.89532725E+00  2.77539070E-02 -6.20009904E+00 -2.26763409E+00
  3.23069572E-02 -5.24911265E+00  2.47528180E+00  7.91677408E-03  5.39587185E+00
 -3.37737226E+00  3.63859636E-01  2.54510437E+00 -4.95805402E+00  3.84515291E-01
Force Field                                I                0
Int Atom Types                             I   N=          15
           0           0           0           0           0           0
           0           0           0           0           0           0
           0           0           0
MM charges                                 R   N=          15
  0.00000000E+00  0.00000000E+00  0.00000000E+00  0.00000000E+00  0.00000000E+00
  0.00000000E+00  0.00000000E+00  0.00000000E+00  0.00000000E+00  0.00000000E+00
  0.00000000E+00  0.00000000E+00  0.00000000E+00  0.00000000E+00  0.00000000E+00
Integer atomic weights                     I   N=          15
          14          12          12          12          14          12
          14          12          14          14           1           1
           1           1           1
Real atomic weights                        R   N=          15
  1.40030740E+01  1.20000000E+01  1.20000000E+01  1.20000000E+01  1.40030740E+01
  1.20000000E+01  1.40030740E+01  1.20000000E+01  1.40030740E+01  1.40030740E+01
  1.00782504E+00  1.00782504E+00  1.00782504E+00  1.00782504E+00  1.00782504E+00
Atom fragment info                         I   N=          15
           0           0           0           0           0           0
           0           0           0           0           0           0
           0           0           0
Atom residue num                           I   N=          15
           0           0           0           0           0           0
           0           0           0           0           0           0
           0           0           0
Nuclear spins                              I   N=          15
           2           0           0           0           2           0
           2           0           2           2           1           1
           1           1           1
Nuclear ZEff                               R   N=          15
 -4.55000000E+00 -3.60000000E+00 -3.60000000E+00 -3.60000000E+00 -4.55000000E+00
 -3.60000000E+00 -4.55000000E+00 -3.60000000E+00 -4.55000000E+00 -4.55000000E+00
 -1.00000000E+00 -1.00000000E+00 -1.00000000E+00 -1.00000000E+00 -1.00000000E+00
Nuclear QMom                               R   N=          15
  2.04400000E+00  0.00000000E+00  0.00000000E+00  0.00000000E+00  2.04400000E+00
  0.00000000E+00  2.04400000E+00  0.00000000E+00  2.04400000E+00  2.04400000E+00
  0.00000000E+00  0.00000000E+00  0.00000000E+00  0.00000000E+00  0.00000000E+00
Nuclear GFac                               R   N=          15
  4.03761000E-01  0.00000000E+00  0.00000000E+00  0.00000000E+00  4.03761000E-01
  0.00000000E+00  4.03761000E-01  0.00000000E+00  4.03761000E-01  4.03761000E-01
  2.79284600E+00  2.79284600E+00  2.79284600E+00  2.79284600E+00  2.79284600E+00
MicOpt                                     I   N=          15
          -1          -1          -1          -1          -1          -1
          -1          -1          -1          -1          -1          -1
          -1          -1          -1
Number of contracted shells                I               50
Number of primitive shells                 I              130
Pure/Cartesian d shells                    I                1
Pure/Cartesian f shells                    I                0
Highest angular momentum                   I                2
Largest degree of contraction              I                6
Shell types                                I   N=          50
           0          -1          -1           2           0          -1
          -1           2           0          -1          -1           2
           0          -1          -1           2           0          -1
          -1           2           0          -1          -1           2
           0          -1          -1           2           0          -1
          -1           2           0          -1          -1           2
           0          -1          -1           2           0           0
           0           0           0           0           0           0
           0           0
Number of primitives per shell             I   N=          50
           6           3           1           1           6           3
           1           1           6           3           1           1
           6           3           1           1           6           3
           1           1           6           3           1           1
           6           3           1           1           6           3
           1           1           6           3           1           1
           6           3           1           1           3           1
           3           1           3           1           3           1
           3           1
Shell to atom map                          I   N=          50
           1           1           1           1           2           2
           2           2           3           3           3           3
           4           4           4           4           5           5
           5           5           6           6           6           6
           7           7           7           7           8           8
           8           8           9           9           9           9
          10          10          10          10          11          11
          12          12          13          13          14          14
          15          15
Primitive exponents                        R   N=         130
  4.17351146E+03  6.27457911E+02  1.42902093E+02  4.02343293E+01  1.28202129E+01
  4.39043701E+00  1.16263619E+01  2.71627981E+00  7.72218397E-01  2.12031498E-01
  8.00000000E-01  3.04752488E+03  4.57369518E+02  1.03948685E+02  2.92101553E+01
  9.28666296E+00  3.16392696E+00  7.86827235E+00  1.88128854E+00  5.44249258E-01
  1.68714478E-01  8.00000000E-01  3.04752488E+03  4.57369518E+02  1.03948685E+02
  2.92101553E+01  9.28666296E+00  3.16392696E+00  7.86827235E+00  1.88128854E+00
  5.44249258E-01  1.68714478E-01  8.00000000E-01  3.04752488E+03  4.57369518E+02
  1.03948685E+02  2.92101553E+01  9.28666296E+00  3.16392696E+00  7.86827235E+00
  1.88128854E+00  5.44249258E-01  1.68714478E-01  8.00000000E-01  4.17351146E+03
  6.27457911E+02  1.42902093E+02  4.02343293E+01  1.28202129E+01  4.39043701E+00
  1.16263619E+01  2.71627981E+00  7.72218397E-01  2.12031498E-01  8.00000000E-01
  3.04752488E+03  4.57369518E+02  1.03948685E+02  2.92101553E+01  9.28666296E+00
  3.16392696E+00  7.86827235E+00  1.88128854E+00  5.44249258E-01  1.68714478E-01
  8.00000000E-01  4.17351146E+03  6.27457911E+02  1.42902093E+02  4.02343293E+01
  1.28202129E+01  4.39043701E+00  1.16263619E+01  2.71627981E+00  7.72218397E-01
  2.12031498E-01  8.00000000E-01  3.04752488E+03  4.57369518E+02  1.03948685E+02
  2.92101553E+01  9.28666296E+00  3.16392696E+00  7.86827235E+00  1.88128854E+00
  5.44249258E-01  1.68714478E-01  8.00000000E-01  4.17351146E+03  6.27457911E+02
  1.42902093E+02  4.02343293E+01  1.28202129E+01  4.39043701E+00  1.16263619E+01
  2.71627981E+00  7.72218397E-01  2.12031498E-01  8.00000000E-01  4.17351146E+03
  6.27457911E+02  1.42902093E+02  4.02343293E+01  1.28202129E+01  4.39043701E+00
  1.16263619E+01  2.71627981E+00  7.72218397E-01  2.12031498E-01  8.00000000E-01
  1.87311370E+01  2.82539436E+00  6.40121692E-01  1.61277759E-01  1.87311370E+01
  2.82539436E+00  6.40121692E-01  1.61277759E-01  1.87311370E+01  2.82539436E+00
  6.40121692E-01  1.61277759E-01  1.87311370E+01  2.82539436E+00  6.40121692E-01
  1.61277759E-01  1.87311370E+01  2.82539436E+00  6.40121692E-01  1.61277759E-01
Contraction coefficients                   R   N=         130
  1.83477216E-03  1.39946270E-02  6.85865518E-02  2.32240873E-01  4.69069948E-01
  3.60455199E-01 -1.14961182E-01 -1.69117479E-01  1.14585195E+00  1.00000000E+00
  1.00000000E+00  1.83473713E-03  1.40373228E-02  6.88426223E-02  2.32184443E-01
  4.67941348E-01  3.62311985E-01 -1.19332420E-01 -1.60854152E-01  1.14345644E+00
  1.00000000E+00  1.00000000E+00  1.83473713E-03  1.40373228E-02  6.88426223E-02
  2.32184443E-01  4.67941348E-01  3.62311985E-01 -1.19332420E-01 -1.60854152E-01
  1.14345644E+00  1.00000000E+00  1.00000000E+00  1.83473713E-03  1.40373228E-02
  6.88426223E-02  2.32184443E-01  4.67941348E-01  3.62311985E-01 -1.19332420E-01
 -1.60854152E-01  1.14345644E+00  1.00000000E+00  1.00000000E+00  1.83477216E-03
  1.39946270E-02  6.85865518E-02  2.32240873E-01  4.69069948E-01  3.60455199E-01
 -1.14961182E-01 -1.69117479E-01  1.14585195E+00  1.00000000E+00  1.00000000E+00
  1.83473713E-03  1.40373228E-02  6.88426223E-02  2.32184443E-01  4.67941348E-01
  3.62311985E-01 -1.19332420E-01 -1.60854152E-01  1.14345644E+00  1.00000000E+00
  1.00000000E+00  1.83477216E-03  1.39946270E-02  6.85865518E-02  2.32240873E-01
  4.69069948E-01  3.60455199E-01 -1.14961182E-01 -1.69117479E-01  1.14585195E+00
  1.00000000E+00  1.00000000E+00  1.83473713E-03  1.40373228E-02  6.88426223E-02
  2.32184443E-01  4.67941348E-01  3.62311985E-01 -1.19332420E-01 -1.60854152E-01
  1.14345644E+00  1.00000000E+00  1.00000000E+00  1.83477216E-03  1.39946270E-02
  6.85865518E-02  2.32240873E-01  4.69069948E-01  3.60455199E-01 -1.14961182E-01
 -1.69117479E-01  1.14585195E+00  1.00000000E+00  1.00000000E+00  1.83477216E-03
  1.39946270E-02  6.85865518E-02  2.32240873E-01  4.69069948E-01  3.60455199E-01
 -1.14961182E-01 -1.69117479E-01  1.14585195E+00  1.00000000E+00  1.00000000E+00
  3.34946043E-02  2.34726953E-01  8.13757326E-01  1.00000000E+00  3.34946043E-02
  2.34726953E-01  8.13757326E-01  1.00000000E+00  3.34946043E-02  2.34726953E-01
  8.13757326E-01  1.00000000E+00  3.34946043E-02  2.34726953E-01  8.13757326E-01
  1.00000000E+00  3.34946043E-02  2.34726953E-01  8.13757326E-01  1.00000000E+00
P(S=P) Contraction coefficients            R   N=         130
  0.00000000E+00  0.00000000E+00  0.00000000E+00  0.00000000E+00  0.00000000E+00
  0.00000000E+00  6.75797439E-02  3.23907296E-01  7.40895140E-01  1.00000000E+00
  0.00000000E+00  0.00000000E+00  0.00000000E+00  0.00000000E+00  0.00000000E+00
  0.00000000E+00  0.00000000E+00  6.89990666E-02  3.16423961E-01  7.44308291E-01
  1.00000000E+00  0.00000000E+00  0.00000000E+00  0.00000000E+00  0.00000000E+00
  0.00000000E+00  0.00000000E+00  0.00000000E+00  6.89990666E-02  3.16423961E-01
  7.44308291E-01  1.00000000E+00  0.00000000E+00  0.00000000E+00  0.00000000E+00
  0.00000000E+00  0.00000000E+00  0.00000000E+00  0.00000000E+00  6.89990666E-02
  3.16423961E-01  7.44308291E-01  1.00000000E+00  0.00000000E+00  0.00000000E+00
  0.00000000E+00  0.00000000E+00  0.00000000E+00  0.00000000E+00  0.00000000E+00
  6.75797439E-02  3.23907296E-01  7.40895140E-01  1.00000000E+00  0.00000000E+00
  0.00000000E+00  0.00000000E+00  0.00000000E+00  0.00000000E+00  0.00000000E+00
  0.00000000E+00  6.89990666E-02  3.16423961E-01  7.44308291E-01  1.00000000E+00
  0.00000000E+00  0.00000000E+00  0.00000000E+00  0.00000000E+00  0.00000000E+00
  0.00000000E+00  0.00000000E+00  6.75797439E-02  3.23907296E-01  7.40895140E-01
  1.00000000E+00  0.00000000E+00  0.00000000E+00  0.00000000E+00  0.00000000E+00
  0.00000000E+00  0.00000000E+00  0.00000000E+00  6.89990666E-02  3.16423961E-01
  7.44308291E-01  1.00000000E+00  0.00000000E+00  0.00000000E+00  0.00000000E+00
  0.00000000E+00  0.00000000E+00  0.00000000E+00  0.00000000E+00  6.75797439E-02
  3.23907296E-01  7.40895140E-01  1.00000000E+00  0.00000000E+00  0.00000000E+00
  0.00000000E+00  0.00000000E+00  0.00000000E+00  0.00000000E+00  0.00000000E+00
  6.75797439E-02  3.23907296E-01  7.40895140E-01  1.00000000E+00  0.00000000E+00
  0.00000000E+00  0.00000000E+00  0.00000000E+00  0.00000000E+00  0.00000000E+00
  0.00000000E+00  0.00000000E+00  0.00000000E+00  0.00000000E+00  0.00000000E+00
  0.00000000E+00  0.00000000E+00  0.00000000E+00  0.00000000E+00  0.00000000E+00
  0.00000000E+00  0.00000000E+00  0.00000000E+00  0.00000000E+00  0.00000000E+00
Coordinates of each shell                  R   N=         150
  3.68193365E+00  9.93970354E-01  1.88866214E-02  3.68193365E+00  9.93970354E-01
  1.88866214E-02  3.68193365E+00  9.93970354E-01  1.88866214E-02  3.68193365E+00
  9.93970354E-01  1.88866214E-02  2.32082053E+00 -1.14437726E+00 -2.09902359E-03
  2.32082053E+00 -1.14437726E+00 -2.09902359E-03  2.32082053E+00 -1.14437726E+00
 -2.09902359E-03  2.32082053E+00 -1.14437726E+00 -2.09902359E-03 -3.35820126E-01
 -9.79553390E-01 -2.52240964E-02 -3.35820126E-01 -9.79553390E-01 -2.52240964E-02
 -3.35820126E-01 -9.79553390E-01 -2.52240964E-02 -3.35820126E-01 -9.79553390E-01
 -2.52240964E-02 -1.34584991E+00  1.46381577E+00 -1.27757354E-02 -1.34584991E+00
  1.46381577E+00 -1.27757354E-02 -1.34584991E+00  1.46381577E+00 -1.27757354E-02
 -1.34584991E+00  1.46381577E+00 -1.27757354E-02 -5.95538598E-02  3.65122928E+00
 -5.81520748E-03 -5.95538598E-02  3.65122928E+00 -5.81520748E-03 -5.95538598E-02
  3.65122928E+00 -5.81520748E-03 -5.95538598E-02  3.65122928E+00 -5.81520748E-03
  2.43446860E+00  3.22510637E+00  1.16884043E-02  2.43446860E+00  3.22510637E+00
  1.16884043E-02  2.43446860E+00  3.22510637E+00  1.16884043E-02  2.43446860E+00
  3.22510637E+00  1.16884043E-02 -2.19841582E+00 -2.80767848E+00  2.95116248E-03
 -2.19841582E+00 -2.80767848E+00  2.95116248E-03 -2.19841582E+00 -2.80767848E+00
  2.95116248E-03 -2.19841582E+00 -2.80767848E+00  2.95116248E-03 -4.31608602E+00
 -1.46873784E+00  1.46738745E-02 -4.31608602E+00 -1.46873784E+00  1.46738745E-02
 -4.31608602E+00 -1.46873784E+00  1.46738745E-02 -4.31608602E+00 -1.46873784E+00
  1.46738745E-02 -3.92292035E+00  1.09399798E+00  3.05756241E-03 -3.92292035E+00
  1.09399798E+00  3.05756241E-03 -3.92292035E+00  1.09399798E+00  3.05756241E-03
 -3.92292035E+00  1.09399798E+00  3.05756241E-03  3.54612872E+00 -3.40938636E+00
 -1.23927725E-01  3.54612872E+00 -3.40938636E+00 -1.23927725E-01  3.54612872E+00
 -3.40938636E+00 -1.23927725E-01  3.54612872E+00 -3.40938636E+00 -1.23927725E-01
  3.63283072E+00  4.89532725E+00  2.77539070E-02  3.63283072E+00  4.89532725E+00
  2.77539070E-02 -6.20009904E+00 -2.26763409E+00  3.23069572E-02 -6.20009904E+00
 -2.26763409E+00  3.23069572E-02 -5.24911265E+00  2.47528180E+00  7.91677408E-03
 -5.24911265E+00  2.47528180E+00  7.91677408E-03  5.39587185E+00 -3.37737226E+00
  3.63859636E-01  5.39587185E+00 -3.37737226E+00  3.63859636E-01  2.54510437E+00
 -4.95805402E+00  3.84515291E-01  2.54510437E+00 -4.95805402E+00  3.84515291E-01
Constraint Structure                       R   N=          45
  3.68193365E+00  9.93970354E-01  1.88866214E-02  2.32082053E+00 -1.14437726E+00
 -2.09902359E-03 -3.35820126E-01 -9.79553390E-01 -2.52240964E-02 -1.34584991E+00
  1.46381577E+00 -1.27757354E-02 -5.95538598E-02  3.65122928E+00 -5.81520748E-03
  2.43446860E+00  3.22510637E+00  1.16884043E-02 -2.19841582E+00 -2.80767848E+00
  2.95116248E-03 -4.31608602E+00 -1.46873784E+00  1.46738745E-02 -3.92292035E+00
  1.09399798E+00  3.05756241E-03  3.54612872E+00 -3.40938636E+00 -1.23927725E-01
  3.63283072E+00  4.89532725E+00  2.77539070E-02 -6.20009904E+00 -2.26763409E+00
  3.23069572E-02 -5.24911265E+00  2.47528180E+00  7.91677408E-03  5.39587185E+00
 -3.37737226E+00  3.63859636E-01  2.54510437E+00 -4.95805402E+00  3.84515291E-01
Num ILSW                                   I              100
ILSW                                       I   N=         100
           0           1           0           0           2           0
           0           0           0           0           0          -1
           0           0           0           0           0           0
           0           0           0           0           1           0
           1           0           0           0           0           0
           0           0      100000           0          -1           0
           0           0           0           0           0           0
           0           0           0           1           1           0
           0           0           1           0           0           0
           0           0           4          40           0           0
           0           0           0           0           0           0
           0           0           0           0           0           0
           0           0           0           0           0           0
           0           0           0           0           0           0
           0           0           0           0           0           0
           0           0           0           0           0           0
           0           0           0           0
Num RLSW                                   I               40
RLSW                                       R   N=          40
  1.00000000E+00  1.00000000E+00  1.00000000E+00  1.00000000E+00  1.00000000E+00
  0.00000000E+00  0.00000000E+00  1.00000000E+00  0.00000000E+00  0.00000000E+00
  0.00000000E+00  0.00000000E+00  1.00000000E+00  0.00000000E+00  0.00000000E+00
  0.00000000E+00  0.00000000E+00  1.00000000E+00  0.00000000E+00  0.00000000E+00
  0.00000000E+00  0.00000000E+00  1.00000000E+00  0.00000000E+00  0.00000000E+00
  0.00000000E+00  0.00000000E+00  1.00000000E+00  0.00000000E+00  0.00000000E+00
  0.00000000E+00  0.00000000E+00  0.00000000E+00  0.00000000E+00  0.00000000E+00
  0.00000000E+00  0.00000000E+00  0.00000000E+00  1.00000000E+00  1.00000000E+00
MxBond                                     I                3
NBond                                      I   N=          15
           2           3           3           3           2           3
           2           3           3           3           1           1
           1           1           1
IBond                                      I   N=          45
           2           6           0           1           3          10
           2           4           7           3           5           9
           4           6           0           1           5          11
           3           8           0           7           9          12
           4           8          13           2          14          15
           6           0           0           8           0           0
           9           0           0          10           0           0
          10           0           0
RBond                                      R   N=          45
  1.50000000E+00  1.50000000E+00  0.00000000E+00  1.50000000E+00  1.50000000E+00
  1.50000000E+00  1.50000000E+00  1.50000000E+00  1.00000000E+00  1.50000000E+00
  1.50000000E+00  1.00000000E+00  1.50000000E+00  1.50000000E+00  0.00000000E+00
  1.50000000E+00  1.50000000E+00  1.00000000E+00  1.00000000E+00  1.50000000E+00
  0.00000000E+00  1.50000000E+00  1.00000000E+00  1.00000000E+00  1.00000000E+00
  1.00000000E+00  1.00000000E+00  1.50000000E+00  1.00000000E+00  1.00000000E+00
  1.00000000E+00  0.00000000E+00  0.00000000E+00  1.00000000E+00  0.00000000E+00
  0.00000000E+00  1.00000000E+00  0.00000000E+00  0.00000000E+00  1.00000000E+00
  0.00000000E+00  0.00000000E+00  1.00000000E+00  0.00000000E+00  0.00000000E+00
Virial Ratio                               R      2.002890347766452E+00
SCF Energy                                 R     -4.645135123610716E+02
MP2 Energy                                 R     -4.659476021987259E+02
Total Energy                               R     -4.659476021987259E+02
Post-SCF wavefunction norm                 R      1.722319086948704E+00
RMS Force                                  R      4.880736790698794E-07
RMS Density                                R      1.185990889032456E-09
External E-field                           R   N=          35
  0.00000000E+00  0.00000000E+00  0.00000000E+00  0.00000000E+00  0.00000000E+00
  0.00000000E+00  0.00000000E+00  0.00000000E+00  0.00000000E+00  0.00000000E+00
  0.00000000E+00  0.00000000E+00  0.00000000E+00  0.00000000E+00  0.00000000E+00
  0.00000000E+00  0.00000000E+00  0.00000000E+00  0.00000000E+00  0.00000000E+00
  0.00000000E+00  0.00000000E+00  0.00000000E+00  0.00000000E+00  0.00000000E+00
  0.00000000E+00  0.00000000E+00  0.00000000E+00  0.00000000E+00  0.00000000E+00
  0.00000000E+00  0.00000000E+00  0.00000000E+00  0.00000000E+00  0.00000000E+00
IOpCl                                      I                0
IROHF                                      I                0
Alpha Orbital Energies                     R   N=         160
 -1.56388014E+01 -1.55845712E+01 -1.55724574E+01 -1.55630073E+01 -1.55545368E+01
 -1.13368700E+01 -1.13271214E+01 -1.13189843E+01 -1.13130166E+01 -1.12535248E+01
 -1.36566562E+00 -1.29550528E+00 -1.24203573E+00 -1.18309337E+00 -1.14919844E+00
 -1.03105171E+00 -8.91575307E-01 -8.73167603E-01 -8.44404427E-01 -7.72811937E-01
 -7.30666499E-01 -6.94189799E-01 -6.69716484E-01 -6.34634883E-01 -6.27196427E-01
 -6.08470360E-01 -5.88010373E-01 -5.51806259E-01 -4.93023284E-01 -4.92184498E-01
 -4.48510004E-01 -4.20815855E-01 -4.05928717E-01 -3.68556381E-01 -3.05652433E-01
  1.24232369E-01  1.55929903E-01  2.05210747E-01  2.16322836E-01  2.37905665E-01
  2.72341059E-01  2.90554790E-01  3.04969030E-01  3.70381195E-01  3.81196502E-01
  4.22568515E-01  4.24226145E-01  4.47769977E-01  4.93084199E-01  5.24374895E-01
  5.33799882E-01  5.48565334E-01  5.97324136E-01  6.38439307E-01  6.64914736E-01
  7.33381684E-01  7.60792141E-01  7.66195244E-01  7.86921459E-01  8.19203729E-01
  8.25419920E-01  8.36962404E-01  8.42357646E-01  8.54555921E-01  8.69321333E-01
  9.01823687E-01  9.32089007E-01  9.43244482E-01  9.64680664E-01  9.88041155E-01
  9.99521711E-01  1.00513980E+00  1.03196589E+00  1.03523970E+00  1.05305901E+00
  1.08219124E+00  1.09176291E+00  1.10459869E+00  1.11009818E+00  1.13592654E+00
  1.15541575E+00  1.18217511E+00  1.19481264E+00  1.20815475E+00  1.22134953E+00
  1.23494184E+00  1.27633766E+00  1.33411088E+00  1.34542031E+00  1.38951757E+00
  1.42750114E+00  1.47502127E+00  1.52670889E+00  1.53415693E+00  1.55905075E+00
  1.57521555E+00  1.58230758E+00  1.64585864E+00  1.66929229E+00  1.69050524E+00
  1.73629540E+00  1.75565792E+00  1.77795438E+00  1.79227298E+00  1.79793303E+00
  1.83456330E+00  1.86627406E+00  1.93302637E+00  2.03425829E+00  2.08191498E+00
  2.09807376E+00  2.10123321E+00  2.13534207E+00  2.23018951E+00  2.25221889E+00
  2.28543490E+00  2.30209347E+00  2.33375100E+00  2.42090449E+00  2.44042866E+00
  2.46143651E+00  2.50771893E+00  2.51927948E+00  2.52600914E+00  2.53584108E+00
  2.56795016E+00  2.57816386E+00  2.62970623E+00  2.69442590E+00  2.72166415E+00
  2.75417350E+00  2.78382134E+00  2.81105471E+00  2.81698123E+00  2.84601931E+00
  2.90085378E+00  2.93903852E+00  2.97334784E+00  2.99967022E+00  3.02161918E+00
  3.07848142E+00  3.09052165E+00  3.09603435E+00  3.19774707E+00  3.25711517E+00
  3.32868774E+00  3.37101799E+00  3.52719703E+00  3.62057943E+00  3.80720872E+00
  4.27620220E+00  4.37232340E+00  4.49040962E+00  4.50425802E+00  4.61119809E+00
  4.63228394E+00  4.71011975E+00  4.75159703E+00  4.88256990E+00  5.07437253E+00
Alpha MO coefficients                      R   N=       25600
  1.43466081E-05  3.16509552E-05  1.36298935E-05 -1.46607862E-05  1.14242012E-06
 -5.71863107E-04  1.19881048E-04  1.46701298E-04 -4.58812061E-06  1.18447918E-05
  2.50932543E-05  6.63837382E-06 -4.93681210E-06  3.85613011E-07  5.52874483E-07
 -2.56708085E-06  1.12336095E-05  5.60042713E-05 -2.00527621E-05  3.31240127E-07
 -1.08415148E-03  5.60714212E-04  6.07159922E-04  2.61056015E-05 -3.92632781E-05
 -5.51359809E-06 -1.06187966E-05  6.61317928E-06 -1.19233116E-06 -1.56199333E-06
  9.84504545E-06 -3.04924982E-05 -4.05321514E-05 -4.43325239E-05  1.23833219E-07
 -7.83249055E-04  2.12572647E-03 -2.25305018E-04 -9.21542628E-06  6.90372118E-05
  2.32007103E-05  7.50228616E-06  1.35460464E-05  1.05422100E-06 -1.71367086E-07
  2.69596333E-05  1.94821635E-04 -1.96662908E-04  1.01474616E-06  2.38274414E-06
  2.70559517E-03 -3.23270111E-03 -2.02201536E-03  5.57089322E-06 -3.19943272E-05
 -4.86767056E-05 -4.86779175E-05 -2.62757529E-05 -9.45285815E-07  7.30221369E-07
 -1.48987611E-04 -1.29465215E-04 -8.36544529E-06 -1.36443736E-05 -1.06785206E-07
  1.62465960E-03  7.87915109E-05 -5.44159986E-04 -5.28768624E-06 -1.07143687E-04
 -5.03905099E-08 -8.58000131E-05 -3.19604407E-05  1.51451235E-07  1.48000272E-06
 -2.41484360E-05 -1.10604941E-04  4.64074652E-05  2.30828050E-05  1.12925485E-06
  1.66103507E-04 -2.64479114E-04 -4.13712972E-04 -1.66280439E-06 -2.68956772E-06
 -1.47017253E-05 -5.25179329E-05  1.16180442E-05  3.70722948E-07 -6.24413905E-08
 -2.56380869E-04 -1.18580702E-05  4.33722572E-05 -1.75115894E-05 -5.27994943E-07
 -2.56399121E-05  2.85836326E-04 -5.44607422E-05 -4.07741722E-06  9.35029438E-06
  2.00115673E-05 -6.23689780E-06  3.73088144E-05 -3.30558475E-07 -1.15680181E-06
  3.19252937E-05  2.28538673E-04  2.29423187E-05  2.95247619E-04 -9.29157034E-07
  1.87880375E-03  1.04492422E-03  7.28641602E-04 -1.38608772E-05 -2.84741548E-05
 -1.00245018E-04 -4.63874107E-05 -1.51082203E-05 -8.71199294E-07 -3.53575475E-07
  9.94998401E-01  2.54904543E-02  1.40125816E-04 -1.70832018E-04 -1.02688696E-06
 -5.41806070E-03 -1.89028884E-03  9.24859698E-04  1.30896734E-05 -3.43232045E-03
 -3.33049064E-03 -3.30532630E-03 -6.77980935E-05  1.59378777E-06  8.32588269E-07
 -1.30051965E-05 -3.75729653E-05 -6.18438972E-06  7.51829583E-06 -1.85763108E-06
  4.46330104E-04 -1.46120693E-04  8.42196586E-05  2.10770752E-05 -1.25240213E-05
 -1.11978005E-05 -1.45977412E-05 -1.39260298E-05 -2.85227762E-06 -2.39832398E-06
  3.23753431E-05  2.38645122E-04  7.59363883E-06  3.02492177E-04  1.26777144E-04
 -4.08234939E-05 -7.18372407E-06 -5.00260784E-06 -1.43076147E-05 -3.98119597E-05
 -4.04854582E-04 -1.60556731E-04 -4.60283133E-06  3.23225249E-06  2.97413114E-07
  1.36156887E-03 -6.67645646E-04  6.38625995E-06 -3.50418379E-05  1.57591141E-05
 -9.70455022E-05 -1.07143699E-04  3.75436068E-05  5.73086180E-06  4.82068558E-06
  3.59560453E-05  3.31362148E-04  7.70233458E-05 -9.16845710E-05 -1.03314942E-05
  4.75613968E-04  1.48158977E-03 -3.15192384E-03  8.11267383E-05 -9.62728219E-05
 -1.52006199E-04 -4.20329392E-05  4.34731782E-05  1.28534744E-06 -1.42332379E-06
 -1.47533818E-05 -7.34474581E-05 -2.51975181E-05 -8.33559425E-06  1.60525777E-06
  9.33983026E-04  1.19935446E-03  1.63025697E-03 -3.51721548E-05 -1.99778471E-06
 -2.31927104E-05 -3.75412410E-05  5.24755367E-05 -2.48795884E-06  2.07538580E-06
 -7.41307530E-06 -1.55537415E-05 -3.27409316E-05  2.44390960E-05 -5.40841134E-08
 -7.22612884E-04 -1.59511779E-05  3.25652904E-04  1.54314003E-05 -3.48102638E-05
  8.36661135E-06 -2.19573075E-05  1.18526202E-05  1.32864661E-06 -1.19968745E-06
  2.78499568E-05  1.30780514E-05 -4.36240102E-06  7.83578368E-07  1.24734820E-06
 -1.48918817E-04  3.32511076E-05  5.78786658E-05 -5.23104195E-06  1.27443148E-05
 -2.61938010E-06  8.48367603E-06 -1.89617890E-07  5.17837356E-07  4.90650031E-07
 -1.90629061E-05 -7.31027894E-05 -7.82574959E-06  5.51780146E-05  1.37192078E-06
 -9.68341421E-05 -1.24694593E-04 -1.07826890E-04  2.98214786E-06 -2.22515774E-05
 -1.62316344E-05 -3.89783723E-05 -4.21535964E-06  1.01361426E-06 -7.75861223E-07
 -1.84552497E-04 -1.10970545E-04  2.65372906E-06 -9.83601688E-06  4.90843798E-07
  1.28603930E-03  3.26588474E-04  3.66394948E-04 -5.27569729E-06 -4.47006575E-05
 -4.91854540E-05 -5.25778918E-05  9.24112839E-06 -3.13445586E-07  9.51951502E-07
 -1.10244974E-05 -4.32612666E-05 -2.31823472E-05 -2.07953090E-06 -1.42664705E-07
 -2.28415311E-05  1.70177985E-05 -4.92648643E-05  2.85609753E-06 -1.04040480E-05
 -1.57965055E-05 -2.29120108E-05 -1.61397529E-06  2.04194631E-07  3.22684206E-07
 -4.40961815E-06 -3.73097641E-05  1.33243568E-06  6.98062618E-06  3.44964534E-07