7367                                                                    
Freq      RMP2-FC                                                     6-31G(d)            
Number of atoms                            I               15
Info1-9                                    I   N=           9
          27          25        1002           0           0         100
           6           2           1
Charge                                     I                0
Multiplicity                               I                1
Number of electrons                        I               98
Number of alpha electrons                  I               49
Number of beta electrons                   I               49
Number of basis functions                  I              172
Number of independent functions            I              172
Number of point charges in /Mol/           I                0
Number of translation vectors              I                0
Atomic numbers                             I   N=          15
          17          17          17           6           6           6
           6           6           6           6           1           1
           1           1           1
Nuclear charges                            R   N=          15
  1.70000000E+01  1.70000000E+01  1.70000000E+01  6.00000000E+00  6.00000000E+00
  6.00000000E+00  6.00000000E+00  6.00000000E+00  6.00000000E+00  6.00000000E+00
  1.00000000E+00  1.00000000E+00  1.00000000E+00  1.00000000E+00  1.00000000E+00
Current cartesian coordinates              R   N=          45
  2.81111082E+00 -1.62239425E+00 -2.74065931E+00  3.15078572E+00  3.07972558E+00
 -1.28626997E-05  2.81110516E+00 -1.62236837E+00  2.74067577E+00 -1.12777545E+00
  1.20251745E-01 -1.59086725E-06 -2.42168480E+00 -2.19408238E+00 -1.71295607E-06
 -2.49667322E+00  2.37727314E+00 -3.39647856E-06  1.73052716E+00  3.37595265E-02
 -9.56333169E-07 -5.05067303E+00 -2.24035919E+00  9.72787427E-07 -5.13606503E+00
  2.31407546E+00 -8.76006124E-07 -6.42251133E+00  1.65154526E-02 -1.88569073E-06
 -1.37084378E+00 -3.95808312E+00  7.96009193E-07 -1.53230250E+00  4.18372894E+00
 -2.07350715E-06 -6.03034209E+00 -4.04579820E+00 -3.46041038E-07 -6.18214763E+00
  4.08192110E+00 -3.75637263E-06 -8.47625865E+00 -2.07414307E-02  9.46421275E-07
Force Field                                I                0
Int Atom Types                             I   N=          15
           0           0           0           0           0           0
           0           0           0           0           0           0
           0           0           0
MM charges                                 R   N=          15
  0.00000000E+00  0.00000000E+00  0.00000000E+00  0.00000000E+00  0.00000000E+00
  0.00000000E+00  0.00000000E+00  0.00000000E+00  0.00000000E+00  0.00000000E+00
  0.00000000E+00  0.00000000E+00  0.00000000E+00  0.00000000E+00  0.00000000E+00
Integer atomic weights                     I   N=          15
          35          35          35          12          12          12
          12          12          12          12           1           1
           1           1           1
Real atomic weights                        R   N=          15
  3.49688527E+01  3.49688527E+01  3.49688527E+01  1.20000000E+01  1.20000000E+01
  1.20000000E+01  1.20000000E+01  1.20000000E+01  1.20000000E+01  1.20000000E+01
  1.00782504E+00  1.00782504E+00  1.00782504E+00  1.00782504E+00  1.00782504E+00
Atom fragment info                         I   N=          15
           0           0           0           0           0           0
           0           0           0           0           0           0
           0           0           0
Atom residue num                           I   N=          15
           0           0           0           0           0           0
           0           0           0           0           0           0
           0           0           0
Nuclear spins                              I   N=          15
           3           3           3           0           0           0
           0           0           0           0           1           1
           1           1           1
Nuclear ZEff                               R   N=          15
 -1.42400000E+01 -1.42400000E+01 -1.42400000E+01 -3.60000000E+00 -3.60000000E+00
 -3.60000000E+00 -3.60000000E+00 -3.60000000E+00 -3.60000000E+00 -3.60000000E+00
 -1.00000000E+00 -1.00000000E+00 -1.00000000E+00 -1.00000000E+00 -1.00000000E+00
Nuclear QMom                               R   N=          15
 -8.16500000E+00 -8.16500000E+00 -8.16500000E+00  0.00000000E+00  0.00000000E+00
  0.00000000E+00  0.00000000E+00  0.00000000E+00  0.00000000E+00  0.00000000E+00
  0.00000000E+00  0.00000000E+00  0.00000000E+00  0.00000000E+00  0.00000000E+00
Nuclear GFac                               R   N=          15
  8.21874000E-01  8.21874000E-01  8.21874000E-01  0.00000000E+00  0.00000000E+00
  0.00000000E+00  0.00000000E+00  0.00000000E+00  0.00000000E+00  0.00000000E+00
  2.79284600E+00  2.79284600E+00  2.79284600E+00  2.79284600E+00  2.79284600E+00
MicOpt                                     I   N=          15
          -1          -1          -1          -1          -1          -1
          -1          -1          -1          -1          -1          -1
          -1          -1          -1
Number of contracted shells                I               53
Number of primitive shells                 I              148
Pure/Cartesian d shells                    I                1
Pure/Cartesian f shells                    I                0
Highest angular momentum                   I                2
Largest degree of contraction              I                6
Shell types                                I   N=          53
           0          -1          -1          -1           2           0
          -1          -1          -1           2           0          -1
          -1          -1           2           0          -1          -1
           2           0          -1          -1           2           0
          -1          -1           2           0          -1          -1
           2           0          -1          -1           2           0
          -1          -1           2           0          -1          -1
           2           0           0           0           0           0
           0           0           0           0           0
Number of primitives per shell             I   N=          53
           6           6           3           1           1           6
           6           3           1           1           6           6
           3           1           1           6           3           1
           1           6           3           1           1           6
           3           1           1           6           3           1
           1           6           3           1           1           6
           3           1           1           6           3           1
           1           3           1           3           1           3
           1           3           1           3           1
Shell to atom map                          I   N=          53
           1           1           1           1           1           2
           2           2           2           2           3           3
           3           3           3           4           4           4
           4           5           5           5           5           6
           6           6           6           7           7           7
           7           8           8           8           8           9
           9           9           9          10          10          10
          10          11          11          12          12          13
          13          14          14          15          15
Primitive exponents                        R   N=         148
  2.51801000E+04  3.78035000E+03  8.60474000E+02  2.42145000E+02  7.73349000E+01
  2.62470000E+01  4.91765000E+02  1.16984000E+02  3.74153000E+01  1.37834000E+01
  5.45215000E+00  2.22588000E+00  3.18649000E+00  1.14427000E+00  4.20377000E-01
  1.42657000E-01  7.50000000E-01  2.51801000E+04  3.78035000E+03  8.60474000E+02
  2.42145000E+02  7.73349000E+01  2.62470000E+01  4.91765000E+02  1.16984000E+02
  3.74153000E+01  1.37834000E+01  5.45215000E+00  2.22588000E+00  3.18649000E+00
  1.14427000E+00  4.20377000E-01  1.42657000E-01  7.50000000E-01  2.51801000E+04
  3.78035000E+03  8.60474000E+02  2.42145000E+02  7.73349000E+01  2.62470000E+01
  4.91765000E+02  1.16984000E+02  3.74153000E+01  1.37834000E+01  5.45215000E+00
  2.22588000E+00  3.18649000E+00  1.14427000E+00  4.20377000E-01  1.42657000E-01
  7.50000000E-01  3.04752488E+03  4.57369518E+02  1.03948685E+02  2.92101553E+01
  9.28666296E+00  3.16392696E+00  7.86827235E+00  1.88128854E+00  5.44249258E-01
  1.68714478E-01  8.00000000E-01  3.04752488E+03  4.57369518E+02  1.03948685E+02
  2.92101553E+01  9.28666296E+00  3.16392696E+00  7.86827235E+00  1.88128854E+00
  5.44249258E-01  1.68714478E-01  8.00000000E-01  3.04752488E+03  4.57369518E+02
  1.03948685E+02  2.92101553E+01  9.28666296E+00  3.16392696E+00  7.86827235E+00
  1.88128854E+00  5.44249258E-01  1.68714478E-01  8.00000000E-01  3.04752488E+03
  4.57369518E+02  1.03948685E+02  2.92101553E+01  9.28666296E+00  3.16392696E+00
  7.86827235E+00  1.88128854E+00  5.44249258E-01  1.68714478E-01  8.00000000E-01
  3.04752488E+03  4.57369518E+02  1.03948685E+02  2.92101553E+01  9.28666296E+00
  3.16392696E+00  7.86827235E+00  1.88128854E+00  5.44249258E-01  1.68714478E-01
  8.00000000E-01  3.04752488E+03  4.57369518E+02  1.03948685E+02  2.92101553E+01
  9.28666296E+00  3.16392696E+00  7.86827235E+00  1.88128854E+00  5.44249258E-01
  1.68714478E-01  8.00000000E-01  3.04752488E+03  4.57369518E+02  1.03948685E+02
  2.92101553E+01  9.28666296E+00  3.16392696E+00  7.86827235E+00  1.88128854E+00
  5.44249258E-01  1.68714478E-01  8.00000000E-01  1.87311370E+01  2.82539436E+00
  6.40121692E-01  1.61277759E-01  1.87311370E+01  2.82539436E+00  6.40121692E-01
  1.61277759E-01  1.87311370E+01  2.82539436E+00  6.40121692E-01  1.61277759E-01
  1.87311370E+01  2.82539436E+00  6.40121692E-01  1.61277759E-01  1.87311370E+01
  2.82539436E+00  6.40121692E-01  1.61277759E-01
Contraction coefficients                   R   N=         148
  1.83295985E-03  1.40341988E-02  6.90973943E-02  2.37451980E-01  4.83033960E-01
  3.39855972E-01 -2.29739142E-03 -3.07137189E-02 -1.12528069E-01  4.50163278E-02
  5.89353363E-01  4.65206287E-01 -2.51828028E-01  6.15892514E-02  1.06018433E+00
  1.00000000E+00  1.00000000E+00  1.83295985E-03  1.40341988E-02  6.90973943E-02
  2.37451980E-01  4.83033960E-01  3.39855972E-01 -2.29739142E-03 -3.07137189E-02
 -1.12528069E-01  4.50163278E-02  5.89353363E-01  4.65206287E-01 -2.51828028E-01
  6.15892514E-02  1.06018433E+00  1.00000000E+00  1.00000000E+00  1.83295985E-03
  1.40341988E-02  6.90973943E-02  2.37451980E-01  4.83033960E-01  3.39855972E-01
 -2.29739142E-03 -3.07137189E-02 -1.12528069E-01  4.50163278E-02  5.89353363E-01
  4.65206287E-01 -2.51828028E-01  6.15892514E-02  1.06018433E+00  1.00000000E+00
  1.00000000E+00  1.83473713E-03  1.40373228E-02  6.88426223E-02  2.32184443E-01
  4.67941348E-01  3.62311985E-01 -1.19332420E-01 -1.60854152E-01  1.14345644E+00
  1.00000000E+00  1.00000000E+00  1.83473713E-03  1.40373228E-02  6.88426223E-02
  2.32184443E-01  4.67941348E-01  3.62311985E-01 -1.19332420E-01 -1.60854152E-01
  1.14345644E+00  1.00000000E+00  1.00000000E+00  1.83473713E-03  1.40373228E-02
  6.88426223E-02  2.32184443E-01  4.67941348E-01  3.62311985E-01 -1.19332420E-01
 -1.60854152E-01  1.14345644E+00  1.00000000E+00  1.00000000E+00  1.83473713E-03
  1.40373228E-02  6.88426223E-02  2.32184443E-01  4.67941348E-01  3.62311985E-01
 -1.19332420E-01 -1.60854152E-01  1.14345644E+00  1.00000000E+00  1.00000000E+00
  1.83473713E-03  1.40373228E-02  6.88426223E-02  2.32184443E-01  4.67941348E-01
  3.62311985E-01 -1.19332420E-01 -1.60854152E-01  1.14345644E+00  1.00000000E+00
  1.00000000E+00  1.83473713E-03  1.40373228E-02  6.88426223E-02  2.32184443E-01
  4.67941348E-01  3.62311985E-01 -1.19332420E-01 -1.60854152E-01  1.14345644E+00
  1.00000000E+00  1.00000000E+00  1.83473713E-03  1.40373228E-02  6.88426223E-02
  2.32184443E-01  4.67941348E-01  3.62311985E-01 -1.19332420E-01 -1.60854152E-01
  1.14345644E+00  1.00000000E+00  1.00000000E+00  3.34946043E-02  2.34726953E-01
  8.13757326E-01  1.00000000E+00  3.34946043E-02  2.34726953E-01  8.13757326E-01
  1.00000000E+00  3.34946043E-02  2.34726953E-01  8.13757326E-01  1.00000000E+00
  3.34946043E-02  2.34726953E-01  8.13757326E-01  1.00000000E+00  3.34946043E-02
  2.34726953E-01  8.13757326E-01  1.00000000E+00
P(S=P) Contraction coefficients            R   N=         148
  0.00000000E+00  0.00000000E+00  0.00000000E+00  0.00000000E+00  0.00000000E+00
  0.00000000E+00  3.98940088E-03  3.03177067E-02  1.29880029E-01  3.27951072E-01
  4.53527100E-01  2.52154056E-01 -1.42993147E-02  3.23572333E-01  7.43507765E-01
  1.00000000E+00  0.00000000E+00  0.00000000E+00  0.00000000E+00  0.00000000E+00
  0.00000000E+00  0.00000000E+00  0.00000000E+00  3.98940088E-03  3.03177067E-02
  1.29880029E-01  3.27951072E-01  4.53527100E-01  2.52154056E-01 -1.42993147E-02
  3.23572333E-01  7.43507765E-01  1.00000000E+00  0.00000000E+00  0.00000000E+00
  0.00000000E+00  0.00000000E+00  0.00000000E+00  0.00000000E+00  0.00000000E+00
  3.98940088E-03  3.03177067E-02  1.29880029E-01  3.27951072E-01  4.53527100E-01
  2.52154056E-01 -1.42993147E-02  3.23572333E-01  7.43507765E-01  1.00000000E+00
  0.00000000E+00  0.00000000E+00  0.00000000E+00  0.00000000E+00  0.00000000E+00
  0.00000000E+00  0.00000000E+00  6.89990666E-02  3.16423961E-01  7.44308291E-01
  1.00000000E+00  0.00000000E+00  0.00000000E+00  0.00000000E+00  0.00000000E+00
  0.00000000E+00  0.00000000E+00  0.00000000E+00  6.89990666E-02  3.16423961E-01
  7.44308291E-01  1.00000000E+00  0.00000000E+00  0.00000000E+00  0.00000000E+00
  0.00000000E+00  0.00000000E+00  0.00000000E+00  0.00000000E+00  6.89990666E-02
  3.16423961E-01  7.44308291E-01  1.00000000E+00  0.00000000E+00  0.00000000E+00
  0.00000000E+00  0.00000000E+00  0.00000000E+00  0.00000000E+00  0.00000000E+00
  6.89990666E-02  3.16423961E-01  7.44308291E-01  1.00000000E+00  0.00000000E+00
  0.00000000E+00  0.00000000E+00  0.00000000E+00  0.00000000E+00  0.00000000E+00
  0.00000000E+00  6.89990666E-02  3.16423961E-01  7.44308291E-01  1.00000000E+00
  0.00000000E+00  0.00000000E+00  0.00000000E+00  0.00000000E+00  0.00000000E+00
  0.00000000E+00  0.00000000E+00  6.89990666E-02  3.16423961E-01  7.44308291E-01
  1.00000000E+00  0.00000000E+00  0.00000000E+00  0.00000000E+00  0.00000000E+00
  0.00000000E+00  0.00000000E+00  0.00000000E+00  6.89990666E-02  3.16423961E-01
  7.44308291E-01  1.00000000E+00  0.00000000E+00  0.00000000E+00  0.00000000E+00
  0.00000000E+00  0.00000000E+00  0.00000000E+00  0.00000000E+00  0.00000000E+00
  0.00000000E+00  0.00000000E+00  0.00000000E+00  0.00000000E+00  0.00000000E+00
  0.00000000E+00  0.00000000E+00  0.00000000E+00  0.00000000E+00  0.00000000E+00
  0.00000000E+00  0.00000000E+00  0.00000000E+00
Coordinates of each shell                  R   N=         159
  2.81111082E+00 -1.62239425E+00 -2.74065931E+00  2.81111082E+00 -1.62239425E+00
 -2.74065931E+00  2.81111082E+00 -1.62239425E+00 -2.74065931E+00  2.81111082E+00
 -1.62239425E+00 -2.74065931E+00  2.81111082E+00 -1.62239425E+00 -2.74065931E+00
  3.15078572E+00  3.07972558E+00 -1.28626997E-05  3.15078572E+00  3.07972558E+00
 -1.28626997E-05  3.15078572E+00  3.07972558E+00 -1.28626997E-05  3.15078572E+00
  3.07972558E+00 -1.28626997E-05  3.15078572E+00  3.07972558E+00 -1.28626997E-05
  2.81110516E+00 -1.62236837E+00  2.74067577E+00  2.81110516E+00 -1.62236837E+00
  2.74067577E+00  2.81110516E+00 -1.62236837E+00  2.74067577E+00  2.81110516E+00
 -1.62236837E+00  2.74067577E+00  2.81110516E+00 -1.62236837E+00  2.74067577E+00
 -1.12777545E+00  1.20251745E-01 -1.59086725E-06 -1.12777545E+00  1.20251745E-01
 -1.59086725E-06 -1.12777545E+00  1.20251745E-01 -1.59086725E-06 -1.12777545E+00
  1.20251745E-01 -1.59086725E-06 -2.42168480E+00 -2.19408238E+00 -1.71295607E-06
 -2.42168480E+00 -2.19408238E+00 -1.71295607E-06 -2.42168480E+00 -2.19408238E+00
 -1.71295607E-06 -2.42168480E+00 -2.19408238E+00 -1.71295607E-06 -2.49667322E+00
  2.37727314E+00 -3.39647856E-06 -2.49667322E+00  2.37727314E+00 -3.39647856E-06
 -2.49667322E+00  2.37727314E+00 -3.39647856E-06 -2.49667322E+00  2.37727314E+00
 -3.39647856E-06  1.73052716E+00  3.37595265E-02 -9.56333169E-07  1.73052716E+00
  3.37595265E-02 -9.56333169E-07  1.73052716E+00  3.37595265E-02 -9.56333169E-07
  1.73052716E+00  3.37595265E-02 -9.56333169E-07 -5.05067303E+00 -2.24035919E+00
  9.72787427E-07 -5.05067303E+00 -2.24035919E+00  9.72787427E-07 -5.05067303E+00
 -2.24035919E+00  9.72787427E-07 -5.05067303E+00 -2.24035919E+00  9.72787427E-07
 -5.13606503E+00  2.31407546E+00 -8.76006124E-07 -5.13606503E+00  2.31407546E+00
 -8.76006124E-07 -5.13606503E+00  2.31407546E+00 -8.76006124E-07 -5.13606503E+00
  2.31407546E+00 -8.76006124E-07 -6.42251133E+00  1.65154526E-02 -1.88569073E-06
 -6.42251133E+00  1.65154526E-02 -1.88569073E-06 -6.42251133E+00  1.65154526E-02
 -1.88569073E-06 -6.42251133E+00  1.65154526E-02 -1.88569073E-06 -1.37084378E+00
 -3.95808312E+00  7.96009193E-07 -1.37084378E+00 -3.95808312E+00  7.96009193E-07
 -1.53230250E+00  4.18372894E+00 -2.07350715E-06 -1.53230250E+00  4.18372894E+00
 -2.07350715E-06 -6.03034209E+00 -4.04579820E+00 -3.46041038E-07 -6.03034209E+00
 -4.04579820E+00 -3.46041038E-07 -6.18214763E+00  4.08192110E+00 -3.75637263E-06
 -6.18214763E+00  4.08192110E+00 -3.75637263E-06 -8.47625865E+00 -2.07414307E-02
  9.46421275E-07 -8.47625865E+00 -2.07414307E-02  9.46421275E-07
Constraint Structure                       R   N=          45
  2.81111082E+00 -1.62239425E+00 -2.74065931E+00  3.15078572E+00  3.07972558E+00
 -1.28626997E-05  2.81110516E+00 -1.62236837E+00  2.74067577E+00 -1.12777545E+00
  1.20251745E-01 -1.59086725E-06 -2.42168480E+00 -2.19408238E+00 -1.71295607E-06
 -2.49667322E+00  2.37727314E+00 -3.39647856E-06  1.73052716E+00  3.37595265E-02
 -9.56333169E-07 -5.05067303E+00 -2.24035919E+00  9.72787427E-07 -5.13606503E+00
  2.31407546E+00 -8.76006124E-07 -6.42251133E+00  1.65154526E-02 -1.88569073E-06
 -1.37084378E+00 -3.95808312E+00  7.96009193E-07 -1.53230250E+00  4.18372894E+00
 -2.07350715E-06 -6.03034209E+00 -4.04579820E+00 -3.46041038E-07 -6.18214763E+00
  4.08192110E+00 -3.75637263E-06 -8.47625865E+00 -2.07414307E-02  9.46421275E-07
Num ILSW                                   I              100
ILSW                                       I   N=         100
           0           1           0           0           2           0
           0           0           0           0           0          -1
           0           0           0           0           0           0
           0           0           0           0           1           0
           1           0           0           0           0           0
           0           0      100000           0          -1           0
           0           0           0           0           0           0
           0           0           0           1           1           0
           0           0           1           0           0           0
           0           0           4          40           0           0
           0           0           0           0           0           0
           0           0           0           0           0           0
           0           0           0           0           0           0
           0           0           0           0           0           0
           0           0           0           0           0           0
           0           0           0           0           0           0
           0           0           0           0
Num RLSW                                   I               40
RLSW                                       R   N=          40
  1.00000000E+00  1.00000000E+00  1.00000000E+00  1.00000000E+00  1.00000000E+00
  0.00000000E+00  0.00000000E+00  1.00000000E+00  0.00000000E+00  0.00000000E+00
  0.00000000E+00  0.00000000E+00  1.00000000E+00  0.00000000E+00  0.00000000E+00
  0.00000000E+00  0.00000000E+00  1.00000000E+00  0.00000000E+00  0.00000000E+00
  0.00000000E+00  0.00000000E+00  1.00000000E+00  0.00000000E+00  0.00000000E+00
  0.00000000E+00  0.00000000E+00  1.00000000E+00  0.00000000E+00  0.00000000E+00
  0.00000000E+00  0.00000000E+00  0.00000000E+00  0.00000000E+00  0.00000000E+00
  0.00000000E+00  0.00000000E+00  0.00000000E+00  1.00000000E+00  1.00000000E+00
MxBond                                     I                4
NBond                                      I   N=          15
           1           1           1           3           3           3
           4           3           3           3           1           1
           1           1           1
IBond                                      I   N=          60
           7           0           0           0           7           0
           0           0           7           0           0           0
           5           6           7           0           4           8
          11           0           4           9          12           0
           1           2           3           4           5          10
          13           0           6          10          14           0
           8           9          15           0           5           0
           0           0           6           0           0           0
           8           0           0           0           9           0
           0           0          10           0           0           0
RBond                                      R   N=          60
  1.00000000E+00  0.00000000E+00  0.00000000E+00  0.00000000E+00  1.00000000E+00
  0.00000000E+00  0.00000000E+00  0.00000000E+00  1.00000000E+00  0.00000000E+00
  0.00000000E+00  0.00000000E+00  1.50000000E+00  1.50000000E+00  1.00000000E+00
  0.00000000E+00  1.50000000E+00  1.50000000E+00  1.00000000E+00  0.00000000E+00
  1.50000000E+00  1.50000000E+00  1.00000000E+00  0.00000000E+00  1.00000000E+00
  1.00000000E+00  1.00000000E+00  1.00000000E+00  1.50000000E+00  1.50000000E+00
  1.00000000E+00  0.00000000E+00  1.50000000E+00  1.50000000E+00  1.00000000E+00
  0.00000000E+00  1.50000000E+00  1.50000000E+00  1.00000000E+00  0.00000000E+00
  1.00000000E+00  0.00000000E+00  0.00000000E+00  0.00000000E+00  1.00000000E+00
  0.00000000E+00  0.00000000E+00  0.00000000E+00  1.00000000E+00  0.00000000E+00
  0.00000000E+00  0.00000000E+00  1.00000000E+00  0.00000000E+00  0.00000000E+00
  0.00000000E+00  1.00000000E+00  0.00000000E+00  0.00000000E+00  0.00000000E+00
Virial Ratio                               R      2.000628709690095E+00
SCF Energy                                 R     -1.646406132990955E+03
MP2 Energy                                 R     -1.647698865186319E+03
Total Energy                               R     -1.647698865186319E+03
Post-SCF wavefunction norm                 R      1.720564565631382E+00
RMS Force                                  R      8.088405464815124E-08
RMS Density                                R      9.521337033085453E-10
External E-field                           R   N=          35
  0.00000000E+00  0.00000000E+00  0.00000000E+00  0.00000000E+00  0.00000000E+00
  0.00000000E+00  0.00000000E+00  0.00000000E+00  0.00000000E+00  0.00000000E+00
  0.00000000E+00  0.00000000E+00  0.00000000E+00  0.00000000E+00  0.00000000E+00
  0.00000000E+00  0.00000000E+00  0.00000000E+00  0.00000000E+00  0.00000000E+00
  0.00000000E+00  0.00000000E+00  0.00000000E+00  0.00000000E+00  0.00000000E+00
  0.00000000E+00  0.00000000E+00  0.00000000E+00  0.00000000E+00  0.00000000E+00
  0.00000000E+00  0.00000000E+00  0.00000000E+00  0.00000000E+00  0.00000000E+00
IOpCl                                      I                0
IROHF                                      I                0
Alpha Orbital Energies                     R   N=         172
 -1.04848023E+02 -1.04843080E+02 -1.04843079E+02 -1.14404611E+01 -1.12768966E+01
 -1.12590627E+01 -1.12584259E+01 -1.12554793E+01 -1.12526452E+01 -1.12521505E+01
 -1.05823909E+01 -1.05772942E+01 -1.05772822E+01 -8.05171264E+00 -8.04803246E+00
 -8.04798491E+00 -8.04660952E+00 -8.04659858E+00 -8.04288348E+00 -8.04287945E+00
 -8.04282410E+00 -8.04282273E+00 -1.25254662E+00 -1.16317420E+00 -1.11108102E+00
 -1.10541335E+00 -1.04211425E+00 -1.03037719E+00 -8.92146998E-01 -8.44179301E-01
 -7.93867829E-01 -7.19656311E-01 -6.62126454E-01 -6.57850150E-01 -6.29043324E-01
 -6.23075036E-01 -6.05022400E-01 -5.97138638E-01 -5.29548970E-01 -5.24558080E-01
 -5.12129625E-01 -4.93129687E-01 -4.92410023E-01 -4.67073735E-01 -4.55249977E-01
 -4.54081846E-01 -4.43040090E-01 -3.51691951E-01 -3.46425004E-01  9.85799901E-02
  1.27752461E-01  1.28810708E-01  1.74558423E-01  2.05207545E-01  2.27039878E-01
  2.81151693E-01  2.94347920E-01  3.18055728E-01  3.27652054E-01  3.52944384E-01
  3.66309064E-01  4.24943422E-01  4.55895730E-01  4.71941295E-01  4.87588905E-01
  5.07363766E-01  5.40860467E-01  5.59981281E-01  5.94323365E-01  5.98310897E-01
  6.07680806E-01  6.30999114E-01  6.54976084E-01  6.62478272E-01  6.99130334E-01
  7.00556574E-01  7.01030891E-01  7.11065808E-01  7.24125934E-01  7.51552972E-01
  7.52524884E-01  7.77118255E-01  7.90487098E-01  7.94637478E-01  8.17002593E-01
  8.25857153E-01  8.32890812E-01  8.42391306E-01  8.59988421E-01  8.63293158E-01
  8.98196332E-01  9.05573594E-01  9.67155584E-01  9.68687353E-01  9.83979184E-01
  1.07753425E+00  1.09492345E+00  1.09839015E+00  1.09849520E+00  1.10348102E+00
  1.11908807E+00  1.13172819E+00  1.14024723E+00  1.15320439E+00  1.16024593E+00
  1.16875972E+00  1.17046208E+00  1.17585973E+00  1.18676411E+00  1.21473679E+00
  1.22700423E+00  1.27672621E+00  1.30086077E+00  1.32241794E+00  1.33207945E+00
  1.34397002E+00  1.36656281E+00  1.39619957E+00  1.42060724E+00  1.45947811E+00
  1.50701751E+00  1.51088798E+00  1.51696858E+00  1.62169088E+00  1.68068150E+00
  1.68982201E+00  1.70534997E+00  1.73222463E+00  1.75020730E+00  1.77444663E+00
  1.79159158E+00  1.80388562E+00  2.06500881E+00  2.09032099E+00  2.10031084E+00
  2.13670249E+00  2.16826581E+00  2.16866731E+00  2.21804684E+00  2.29194653E+00
  2.35454517E+00  2.37007060E+00  2.37948631E+00  2.42595759E+00  2.45007733E+00
  2.46549311E+00  2.52099278E+00  2.53121054E+00  2.61363757E+00  2.61854132E+00
  2.64443416E+00  2.69587222E+00  2.89541143E+00  2.90119883E+00  2.97609811E+00
  3.04829891E+00  3.07929146E+00  3.08970639E+00  3.11378118E+00  3.19147291E+00
  3.41326552E+00  3.76424526E+00  4.44538051E+00  4.50311222E+00  4.52307657E+00
  4.56556117E+00  4.71805707E+00  4.72263295E+00  4.72552037E+00  4.76378537E+00
  4.81133553E+00  5.10151185E+00
Alpha MO coefficients                      R   N=       29584
 -1.64763789E-04  9.69400225E-07 -6.13472826E-07  1.48691182E-06  3.33395138E-06
  4.44599749E-05  4.19760578E-06 -5.30820968E-06 -1.65924120E-05 -1.27879443E-04
  1.82581531E-06 -6.87067610E-05 -4.25436599E-05  4.00519132E-06 -1.72593180E-05
 -8.63688564E-06 -5.22781093E-07  1.15010352E-06 -1.63649812E-05  9.96116318E-01
  1.46392942E-02 -2.98729789E-05 -5.34485060E-05  2.29639059E-10 -1.77444046E-02
  4.11499960E-05  6.02458994E-05 -3.29302282E-10  1.54429070E-03 -6.59567248E-05
 -7.76380926E-05  4.66215509E-10  6.24974235E-03  6.24908863E-03  6.24454152E-03
  1.35172027E-06 -1.77853132E-11 -6.57903857E-12 -1.64759539E-04  9.69468527E-07
 -6.13474255E-07  1.48688301E-06 -3.33397141E-06  4.44599523E-05  4.19761104E-06
 -5.30807066E-06  1.65925005E-05 -1.27879775E-04  1.82572824E-06 -6.87065428E-05
  4.25444264E-05  4.00523147E-06 -1.72590491E-05 -8.63713549E-06 -5.22803844E-07
 -1.15008427E-06  1.63650975E-05 -1.40817882E-06  1.13048261E-05 -5.98329224E-06
  1.08667758E-06 -2.37583004E-11  6.45733531E-05 -1.95714652E-04  2.87351186E-05
  5.40042082E-11 -1.88161915E-05 -5.28845748E-06 -8.37200681E-06 -1.38372922E-05
  4.61740192E-11 -1.13859852E-11 -8.40946347E-07  4.85818903E-08 -2.85992148E-06
 -1.14767508E-06  1.97061278E-11 -6.50661250E-05  6.17988305E-05 -3.94835025E-05
 -1.25888268E-10 -5.26488711E-06  6.76161509E-07 -3.21900136E-06  2.42214826E-06
 -1.79069479E-12 -2.60770635E-11  2.19733255E-06  2.43273458E-05  2.43967875E-07
 -5.67297646E-06 -3.97662617E-11 -1.28118264E-04  5.20492088E-06  1.71368201E-04
  9.01588432E-11 -1.40532474E-05 -2.83779886E-06  3.76778764E-06 -3.48322600E-08
  4.06660845E-11  4.61423358E-11 -1.23187975E-05  1.35098068E-05  1.06634176E-05
  4.66320580E-05 -2.53410293E-10  2.61507108E-04 -2.21616630E-05 -4.71723548E-05
  5.23624059E-10 -2.06143070E-05 -4.56418093E-05 -2.08868417E-05 -1.27146739E-05
  4.26604731E-11  1.01772564E-10  1.62173257E-07 -2.45863814E-07  2.28965478E-06
  1.97140124E-06 -5.75020388E-13  6.79640168E-05  2.38074416E-05  8.65790772E-06
 -3.79592583E-11  2.54874481E-06 -1.32901703E-07  1.00372719E-06 -5.24044691E-07
 -6.59859326E-12 -8.28276712E-12 -9.67864381E-07 -4.54315471E-06  1.66748531E-06
  1.57615283E-07  1.40640379E-12  6.72027121E-05  3.18643968E-05 -6.92210528E-05
 -6.81565105E-11  4.24699209E-06 -2.57285600E-06 -2.55086007E-06 -2.78156578E-06
 -2.53871301E-11  2.51740991E-11  5.55359572E-07  3.07594326E-06  9.66090909E-07
 -1.37890601E-06  7.17195565E-12 -5.58156253E-05 -3.96864989E-05 -6.56262167E-06
 -2.21172698E-11  1.79791245E-07  2.99430005E-08  1.05390606E-06 -2.06059468E-08
 -1.50160725E-11  4.44193744E-12 -2.46840209E-06 -2.67987378E-05 -2.97585302E-06
 -1.39931225E-04 -9.99324592E-07  4.17155022E-07  2.81393771E-06  2.69243202E-05
 -1.76114078E-06 -1.05992406E-05  7.40215051E-01  1.08772028E-02 -1.38576439E-05
  1.96930762E-05  3.43003727E-05 -1.32073225E-02  1.49734634E-05 -1.72908565E-05