cyclopropane                                                            
Freq      RMP2-FC                                                     6-31G(d)            
Number of atoms                            I                9
Info1-9                                    I   N=           9
          28          19        1002           0           0         100
           6           2           1
Charge                                     I                0
Multiplicity                               I                1
Number of electrons                        I               24
Number of alpha electrons                  I               12
Number of beta electrons                   I               12
Number of basis functions                  I               57
Number of independent functions            I               57
Number of point charges in /Mol/           I                0
Number of translation vectors              I                0
Atomic numbers                             I   N=           9
           6           6           6           1           1           1
           1           1           1
Nuclear charges                            R   N=           9
  6.00000000E+00  6.00000000E+00  6.00000000E+00  1.00000000E+00  1.00000000E+00
  1.00000000E+00  1.00000000E+00  1.00000000E+00  1.00000000E+00
Current cartesian coordinates              R   N=          27
  1.40175507E+00 -8.51966966E-01  2.70457999E-05  3.69492586E-02  1.63993389E+00
 -2.54823051E-05 -1.43870420E+00 -7.87969725E-01 -1.66109341E-06  2.35279507E+00
 -1.42998501E+00 -1.72115557E+00  2.35273623E+00 -1.42995645E+00  1.72125129E+00
  6.20149490E-02  2.75256922E+00  1.72115555E+00  6.20178407E-02  2.75249840E+00
 -1.72125186E+00 -2.41476170E+00 -1.32259925E+00 -1.72120246E+00 -2.41480314E+00
 -1.32251008E+00  1.72120363E+00
Force Field                                I                0
Int Atom Types                             I   N=           9
           0           0           0           0           0           0
           0           0           0
MM charges                                 R   N=           9
  0.00000000E+00  0.00000000E+00  0.00000000E+00  0.00000000E+00  0.00000000E+00
  0.00000000E+00  0.00000000E+00  0.00000000E+00  0.00000000E+00
Integer atomic weights                     I   N=           9
          12          12          12           1           1           1
           1           1           1
Real atomic weights                        R   N=           9
  1.20000000E+01  1.20000000E+01  1.20000000E+01  1.00782504E+00  1.00782504E+00
  1.00782504E+00  1.00782504E+00  1.00782504E+00  1.00782504E+00
Atom fragment info                         I   N=           9
           0           0           0           0           0           0
           0           0           0
Atom residue num                           I   N=           9
           0           0           0           0           0           0
           0           0           0
Nuclear spins                              I   N=           9
           0           0           0           1           1           1
           1           1           1
Nuclear ZEff                               R   N=           9
 -3.60000000E+00 -3.60000000E+00 -3.60000000E+00 -1.00000000E+00 -1.00000000E+00
 -1.00000000E+00 -1.00000000E+00 -1.00000000E+00 -1.00000000E+00
Nuclear QMom                               R   N=           9
  0.00000000E+00  0.00000000E+00  0.00000000E+00  0.00000000E+00  0.00000000E+00
  0.00000000E+00  0.00000000E+00  0.00000000E+00  0.00000000E+00
Nuclear GFac                               R   N=           9
  0.00000000E+00  0.00000000E+00  0.00000000E+00  2.79284600E+00  2.79284600E+00
  2.79284600E+00  2.79284600E+00  2.79284600E+00  2.79284600E+00
MicOpt                                     I   N=           9
          -1          -1          -1          -1          -1          -1
          -1          -1          -1
Number of contracted shells                I               24
Number of primitive shells                 I               57
Pure/Cartesian d shells                    I                1
Pure/Cartesian f shells                    I                0
Highest angular momentum                   I                2
Largest degree of contraction              I                6
Shell types                                I   N=          24
           0          -1          -1           2           0          -1
          -1           2           0          -1          -1           2
           0           0           0           0           0           0
           0           0           0           0           0           0
Number of primitives per shell             I   N=          24
           6           3           1           1           6           3
           1           1           6           3           1           1
           3           1           3           1           3           1
           3           1           3           1           3           1
Shell to atom map                          I   N=          24
           1           1           1           1           2           2
           2           2           3           3           3           3
           4           4           5           5           6           6
           7           7           8           8           9           9
Primitive exponents                        R   N=          57
  3.04752488E+03  4.57369518E+02  1.03948685E+02  2.92101553E+01  9.28666296E+00
  3.16392696E+00  7.86827235E+00  1.88128854E+00  5.44249258E-01  1.68714478E-01
  8.00000000E-01  3.04752488E+03  4.57369518E+02  1.03948685E+02  2.92101553E+01
  9.28666296E+00  3.16392696E+00  7.86827235E+00  1.88128854E+00  5.44249258E-01
  1.68714478E-01  8.00000000E-01  3.04752488E+03  4.57369518E+02  1.03948685E+02
  2.92101553E+01  9.28666296E+00  3.16392696E+00  7.86827235E+00  1.88128854E+00
  5.44249258E-01  1.68714478E-01  8.00000000E-01  1.87311370E+01  2.82539436E+00
  6.40121692E-01  1.61277759E-01  1.87311370E+01  2.82539436E+00  6.40121692E-01
  1.61277759E-01  1.87311370E+01  2.82539436E+00  6.40121692E-01  1.61277759E-01
  1.87311370E+01  2.82539436E+00  6.40121692E-01  1.61277759E-01  1.87311370E+01
  2.82539436E+00  6.40121692E-01  1.61277759E-01  1.87311370E+01  2.82539436E+00
  6.40121692E-01  1.61277759E-01
Contraction coefficients                   R   N=          57
  1.83473713E-03  1.40373228E-02  6.88426223E-02  2.32184443E-01  4.67941348E-01
  3.62311985E-01 -1.19332420E-01 -1.60854152E-01  1.14345644E+00  1.00000000E+00
  1.00000000E+00  1.83473713E-03  1.40373228E-02  6.88426223E-02  2.32184443E-01
  4.67941348E-01  3.62311985E-01 -1.19332420E-01 -1.60854152E-01  1.14345644E+00
  1.00000000E+00  1.00000000E+00  1.83473713E-03  1.40373228E-02  6.88426223E-02
  2.32184443E-01  4.67941348E-01  3.62311985E-01 -1.19332420E-01 -1.60854152E-01
  1.14345644E+00  1.00000000E+00  1.00000000E+00  3.34946043E-02  2.34726953E-01
  8.13757326E-01  1.00000000E+00  3.34946043E-02  2.34726953E-01  8.13757326E-01
  1.00000000E+00  3.34946043E-02  2.34726953E-01  8.13757326E-01  1.00000000E+00
  3.34946043E-02  2.34726953E-01  8.13757326E-01  1.00000000E+00  3.34946043E-02
  2.34726953E-01  8.13757326E-01  1.00000000E+00  3.34946043E-02  2.34726953E-01
  8.13757326E-01  1.00000000E+00
P(S=P) Contraction coefficients            R   N=          57
  0.00000000E+00  0.00000000E+00  0.00000000E+00  0.00000000E+00  0.00000000E+00
  0.00000000E+00  6.89990666E-02  3.16423961E-01  7.44308291E-01  1.00000000E+00
  0.00000000E+00  0.00000000E+00  0.00000000E+00  0.00000000E+00  0.00000000E+00
  0.00000000E+00  0.00000000E+00  6.89990666E-02  3.16423961E-01  7.44308291E-01
  1.00000000E+00  0.00000000E+00  0.00000000E+00  0.00000000E+00  0.00000000E+00
  0.00000000E+00  0.00000000E+00  0.00000000E+00  6.89990666E-02  3.16423961E-01
  7.44308291E-01  1.00000000E+00  0.00000000E+00  0.00000000E+00  0.00000000E+00
  0.00000000E+00  0.00000000E+00  0.00000000E+00  0.00000000E+00  0.00000000E+00
  0.00000000E+00  0.00000000E+00  0.00000000E+00  0.00000000E+00  0.00000000E+00
  0.00000000E+00  0.00000000E+00  0.00000000E+00  0.00000000E+00  0.00000000E+00
  0.00000000E+00  0.00000000E+00  0.00000000E+00  0.00000000E+00  0.00000000E+00
  0.00000000E+00  0.00000000E+00
Coordinates of each shell                  R   N=          72
  1.40175507E+00 -8.51966966E-01  2.70457999E-05  1.40175507E+00 -8.51966966E-01
  2.70457999E-05  1.40175507E+00 -8.51966966E-01  2.70457999E-05  1.40175507E+00
 -8.51966966E-01  2.70457999E-05  3.69492586E-02  1.63993389E+00 -2.54823051E-05
  3.69492586E-02  1.63993389E+00 -2.54823051E-05  3.69492586E-02  1.63993389E+00
 -2.54823051E-05  3.69492586E-02  1.63993389E+00 -2.54823051E-05 -1.43870420E+00
 -7.87969725E-01 -1.66109341E-06 -1.43870420E+00 -7.87969725E-01 -1.66109341E-06
 -1.43870420E+00 -7.87969725E-01 -1.66109341E-06 -1.43870420E+00 -7.87969725E-01
 -1.66109341E-06  2.35279507E+00 -1.42998501E+00 -1.72115557E+00  2.35279507E+00
 -1.42998501E+00 -1.72115557E+00  2.35273623E+00 -1.42995645E+00  1.72125129E+00
  2.35273623E+00 -1.42995645E+00  1.72125129E+00  6.20149490E-02  2.75256922E+00
  1.72115555E+00  6.20149490E-02  2.75256922E+00  1.72115555E+00  6.20178407E-02
  2.75249840E+00 -1.72125186E+00  6.20178407E-02  2.75249840E+00 -1.72125186E+00
 -2.41476170E+00 -1.32259925E+00 -1.72120246E+00 -2.41476170E+00 -1.32259925E+00
 -1.72120246E+00 -2.41480314E+00 -1.32251008E+00  1.72120363E+00 -2.41480314E+00
 -1.32251008E+00  1.72120363E+00
Constraint Structure                       R   N=          27
  1.40175507E+00 -8.51966966E-01  2.70457999E-05  3.69492586E-02  1.63993389E+00
 -2.54823051E-05 -1.43870420E+00 -7.87969725E-01 -1.66109341E-06  2.35279507E+00
 -1.42998501E+00 -1.72115557E+00  2.35273623E+00 -1.42995645E+00  1.72125129E+00
  6.20149490E-02  2.75256922E+00  1.72115555E+00  6.20178407E-02  2.75249840E+00
 -1.72125186E+00 -2.41476170E+00 -1.32259925E+00 -1.72120246E+00 -2.41480314E+00
 -1.32251008E+00  1.72120363E+00
Num ILSW                                   I              100
ILSW                                       I   N=         100
           0           1           0           0           2           0
           0           0           0           0           0          -1
           0           0           0           0           0           0
           0           0           0           0           1           0
           1           0           0           0           0           0
           0           0      100000           0          -1           0
           0           0           0           0           0           0
           0           0           0           1           1           0
           0           0           1           0           0           0
           0           0           4          40           0           0
           0           0           0           0           0           0
           0           0           0           0           0           0
           0           0           0           0           0           0
           0           0           0           0           0           0
           0           0           0           0           0           0
           0           0           0           0           0           0
           0           0           0           0
Num RLSW                                   I               40
RLSW                                       R   N=          40
  1.00000000E+00  1.00000000E+00  1.00000000E+00  1.00000000E+00  1.00000000E+00
  0.00000000E+00  0.00000000E+00  1.00000000E+00  0.00000000E+00  0.00000000E+00
  0.00000000E+00  0.00000000E+00  1.00000000E+00  0.00000000E+00  0.00000000E+00
  0.00000000E+00  0.00000000E+00  1.00000000E+00  0.00000000E+00  0.00000000E+00
  0.00000000E+00  0.00000000E+00  1.00000000E+00  0.00000000E+00  0.00000000E+00
  0.00000000E+00  0.00000000E+00  1.00000000E+00  0.00000000E+00  0.00000000E+00
  0.00000000E+00  0.00000000E+00  0.00000000E+00  0.00000000E+00  0.00000000E+00
  0.00000000E+00  0.00000000E+00  0.00000000E+00  1.00000000E+00  1.00000000E+00
MxBond                                     I                4
NBond                                      I   N=           9
           4           4           4           1           1           1
           1           1           1
IBond                                      I   N=          36
           2           3           4           5           1           3
           6           7           1           2           8           9
           1           0           0           0           1           0
           0           0           2           0           0           0
           2           0           0           0           3           0
           0           0           3           0           0           0
RBond                                      R   N=          36
  1.00000000E+00  1.00000000E+00  1.00000000E+00  1.00000000E+00  1.00000000E+00
  1.00000000E+00  1.00000000E+00  1.00000000E+00  1.00000000E+00  1.00000000E+00
  1.00000000E+00  1.00000000E+00  1.00000000E+00  0.00000000E+00  0.00000000E+00
  0.00000000E+00  1.00000000E+00  0.00000000E+00  0.00000000E+00  0.00000000E+00
  1.00000000E+00  0.00000000E+00  0.00000000E+00  0.00000000E+00  1.00000000E+00
  0.00000000E+00  0.00000000E+00  0.00000000E+00  1.00000000E+00  0.00000000E+00
  0.00000000E+00  0.00000000E+00  1.00000000E+00  0.00000000E+00  0.00000000E+00
  0.00000000E+00
Virial Ratio                               R      2.001383128306102E+00
SCF Energy                                 R     -1.170584697228639E+02
MP2 Energy                                 R     -1.174485745177150E+02
Total Energy                               R     -1.174485745177150E+02
Post-SCF wavefunction norm                 R      1.504600546678951E+00
RMS Force                                  R      2.161807914967783E-06
RMS Density                                R      6.661130148373332E-10
External E-field                           R   N=          35
  0.00000000E+00  0.00000000E+00  0.00000000E+00  0.00000000E+00  0.00000000E+00
  0.00000000E+00  0.00000000E+00  0.00000000E+00  0.00000000E+00  0.00000000E+00
  0.00000000E+00  0.00000000E+00  0.00000000E+00  0.00000000E+00  0.00000000E+00
  0.00000000E+00  0.00000000E+00  0.00000000E+00  0.00000000E+00  0.00000000E+00
  0.00000000E+00  0.00000000E+00  0.00000000E+00  0.00000000E+00  0.00000000E+00
  0.00000000E+00  0.00000000E+00  0.00000000E+00  0.00000000E+00  0.00000000E+00
  0.00000000E+00  0.00000000E+00  0.00000000E+00  0.00000000E+00  0.00000000E+00
IOpCl                                      I                0
IROHF                                      I                0
Alpha Orbital Energies                     R   N=          57
 -1.12226507E+01 -1.12216561E+01 -1.12216558E+01 -1.12950455E+00 -8.14712917E-01
 -8.14711853E-01 -6.64377645E-01 -6.25222207E-01 -5.09296311E-01 -5.09295641E-01
 -4.16406643E-01 -4.16405816E-01  2.44764240E-01  2.57222627E-01  3.04171854E-01
  3.04172723E-01  3.26938839E-01  3.83510519E-01  3.83511101E-01  4.28722879E-01
  4.28723473E-01  6.64033534E-01  7.49345282E-01  7.65635288E-01  7.65637087E-01
  9.12591111E-01  9.17075156E-01  9.17077558E-01  9.57588674E-01  1.02289228E+00
  1.02289669E+00  1.12481082E+00  1.20624672E+00  1.20624800E+00  1.21566067E+00
  1.22431369E+00  1.22431403E+00  1.50825319E+00  1.50825510E+00  1.84001333E+00
  2.11287634E+00  2.11288230E+00  2.20151685E+00  2.20151936E+00  2.21956718E+00
  2.32804555E+00  2.43273601E+00  2.62283866E+00  2.62284254E+00  2.83997977E+00
  2.83998157E+00  2.85997923E+00  2.85997945E+00  3.13770915E+00  4.53155673E+00
  4.82241235E+00  4.82241286E+00
Alpha MO coefficients                      R   N=        3249
  5.74812976E-01  1.63457156E-02 -3.05570728E-04  1.85721059E-04 -5.26805729E-09
 -4.38948575E-03 -2.08465222E-05  1.23327735E-05 -9.83635723E-09 -1.48986350E-03
 -1.41184822E-03 -1.10916635E-03  8.67053339E-05 -8.59891189E-09  3.40756508E-09
  5.74538984E-01  1.63380336E-02 -8.04886458E-06 -3.57230803E-04  3.66403742E-09
 -4.38460013E-03 -5.30564616E-07 -2.49677838E-05  2.42989285E-08 -1.36584484E-03
 -1.53513317E-03 -1.10871184E-03 -4.40116565E-06  2.43502530E-10  9.92633052E-09
  5.74786311E-01  1.63449665E-02  3.13602797E-04  1.71757881E-04  1.62934695E-09
 -4.38900112E-03  2.14636888E-05  1.13908960E-05 -1.49887504E-08 -1.49643717E-03
 -1.40520447E-03 -1.10912225E-03 -8.23084024E-05 -3.11396934E-09  7.75716551E-09
 -1.37875268E-04  1.21229174E-03 -1.37872849E-04  1.21230272E-03 -1.37928977E-04
  1.21165402E-03 -1.37922944E-04  1.21167988E-03 -1.37881541E-04  1.21222784E-03
 -1.37877628E-04  1.21224320E-03  7.20274689E-01  2.02259962E-02 -5.87040819E-04
  3.61175306E-04 -8.17128664E-09 -1.29234368E-02  2.11424886E-03 -3.99110797E-04
 -1.90712549E-09 -7.12569076E-04 -1.20670214E-03 -1.19666175E-03 -2.43790706E-04
  7.07120438E-09 -3.25471365E-09 -3.34008468E-02 -9.37934484E-04  8.77022763E-06
  3.17670477E-05 -5.98878428E-09  5.99122691E-04  1.62763004E-03 -1.30044017E-04
  6.16189709E-08  7.03041759E-05  1.87370708E-05  5.54967491E-05  3.02531380E-04
 -4.35623540E-09  4.35368149E-09 -6.86921585E-01 -1.92894199E-02 -5.74434416E-04
 -3.19535539E-04  1.70725109E-09  1.23246786E-02  2.10393738E-03  1.56880779E-04
  3.15987707E-09  6.41926227E-04  1.18854573E-03  1.14125729E-03 -1.91908171E-04
 -2.38161773E-09 -4.67634984E-09  1.40904643E-04  1.66151678E-03  1.40913382E-04
  1.66154102E-03 -6.53314225E-06 -7.70630319E-05 -6.52077868E-06 -7.70283085E-05
 -1.34372195E-04 -1.58458979E-03 -1.34368462E-04 -1.58457826E-03 -3.77188093E-01
 -1.05917634E-02  3.12177468E-04 -1.81382864E-04  1.05807363E-08  6.76885286E-03
 -1.50925680E-04  1.78297392E-03 -6.68523517E-08  6.36634322E-04  3.68166119E-04
  6.26629494E-04  2.85661387E-04 -4.45421794E-09  8.69605197E-09  8.12567400E-01
  2.28177359E-02 -1.71829334E-05 -7.77321415E-04  1.02465391E-08 -1.45780072E-02
  1.18139518E-04  2.26960352E-03 -1.72707965E-08 -1.42163252E-03 -7.43902336E-04
 -1.35003727E-03  3.01272246E-05  7.01090284E-10 -8.60970663E-09 -4.35012498E-01
 -1.22155276E-02 -3.68400695E-04 -1.94008360E-04 -5.92924450E-09  7.80634503E-03
  4.05058220E-04  1.79328357E-03  1.46342809E-08  6.68747224E-04  4.90137559E-04
  7.22698935E-04 -3.15258142E-04  3.60468994E-09 -8.80777794E-10 -7.38447371E-05
 -8.70136431E-04 -7.38352482E-05 -8.70104973E-04  1.58901189E-04  1.87439965E-03
  1.58908310E-04  1.87441379E-03 -8.51453663E-05 -1.00349512E-03 -8.51581765E-05
 -1.00352531E-03 -1.23395281E-01  2.32232072E-01 -9.62493448E-02  5.84996712E-02
 -1.77603414E-06  1.60645685E-01 -1.08724279E-02  6.60820848E-03 -1.89016678E-07
  1.27834654E-02  1.83143396E-03 -5.54845228E-04 -1.21889128E-02  2.67954755E-07
 -2.66212922E-07 -1.23395741E-01  2.32232850E-01 -2.53704264E-03 -1.12604476E-01
  1.57949114E-06  1.60646329E-01 -2.86595208E-04 -1.27200010E-02  1.16937790E-07
 -4.57222350E-03  1.91871181E-02 -5.54836821E-04  6.18439181E-04  6.24948343E-08
 -3.34400541E-07 -1.23395237E-01  2.32231986E-01  9.87863931E-02  5.41053239E-02
  2.02383667E-07  1.60645617E-01  1.11590163E-02  6.11182451E-03  7.87548320E-08
  1.37111362E-02  9.03764862E-04 -5.54845069E-04  1.15704703E-02 -7.62998139E-08
  2.12899922E-07  5.24935144E-02  5.63382866E-03  5.24936581E-02  5.63383745E-03
  5.24936575E-02  5.63386821E-03  5.24939424E-02  5.63386596E-03  5.24935009E-02
  5.63383895E-03  5.24936495E-02  5.63382755E-03  1.24867723E-01 -2.36638002E-01
 -1.27018209E-01  2.52219357E-03 -1.21904772E-06 -2.82140422E-01 -3.04633166E-02
 -3.10333925E-03 -2.78095393E-07  8.27102741E-03 -6.34548025E-04 -1.95568387E-02
  9.44461361E-03  3.99144047E-07 -3.24144200E-08  4.38691169E-03 -8.31368636E-03
 -1.21402141E-01 -1.12502943E-03 -1.36703975E-06 -9.91226127E-03 -3.51385769E-02
 -6.64674906E-05 -2.30594415E-07  9.78084521E-04 -7.09792219E-04 -6.87075424E-04
  1.69221447E-02 -2.60327174E-07  1.14760334E-07 -1.29254689E-01  2.44951779E-01
 -1.27369194E-01 -4.16472571E-03 -9.16221700E-07  2.92052811E-01 -3.01712314E-02
  2.46446274E-03 -3.47570231E-07 -6.91197372E-03 -9.92791035E-04  2.02439275E-02
  9.57439487E-03 -5.68318331E-07  7.81701079E-07 -1.29510841E-01 -5.66997740E-02
 -1.29510165E-01 -5.66994507E-02 -4.55041331E-03 -1.99219303E-03 -4.54957227E-03
 -1.99177433E-03  1.34060490E-01  5.86915796E-02  1.34060747E-01  5.86917148E-02
  7.71581433E-02 -1.46223117E-01 -4.36851444E-03  1.23507590E-01 -2.61952368E-06
 -1.74340359E-01  2.63267095E-03  3.33853596E-02 -6.29067461E-07 -1.02120327E-02
  1.49307423E-02 -1.20845672E-02 -3.34260542E-03  1.49569414E-07 -3.48869354E-07
 -1.46717383E-01  2.78045441E-01 -7.19975634E-04  1.29125066E-01 -2.60911998E-06
  3.31510716E-01 -4.03759327E-04  2.87103198E-02 -6.39800664E-07 -1.05820803E-02
  1.60923128E-03  2.29790656E-02  8.24617831E-04 -7.76914928E-08  5.21219309E-07
  6.95597872E-02 -1.31823410E-01  2.32083955E-03  1.23156644E-01 -1.99507670E-06
 -1.57171687E-01 -2.93426714E-03  3.36774646E-02 -7.93901832E-07 -1.03319727E-02
  1.45859931E-02 -1.08945011E-02  5.21665703E-03 -7.22293565E-08 -6.06956360E-07
 -8.00265423E-02 -3.50356995E-02 -8.00275771E-02 -3.50361236E-02  1.52173026E-01
  6.66214745E-02  1.52172935E-01  6.66213797E-02 -7.21465531E-02 -3.15858578E-02
 -7.21457785E-02 -3.15854360E-02  8.29781031E-08 -1.64255656E-07 -3.31671473E-06
  3.33876147E-06  2.57841325E-01 -1.17873396E-07 -1.44203711E-06  1.56329117E-06
  1.12613138E-01 -2.83019500E-07  3.98341834E-08  2.39891830E-07  5.00248017E-08
  4.90671089E-03 -2.98204122E-03 -1.98569481E-07  4.24135175E-07 -1.65143671E-06
  4.68260336E-06  2.57842390E-01  1.77839857E-07 -7.50036547E-07  2.22858219E-06
  1.12614270E-01  9.26982298E-09  3.06768909E-07 -3.16623593E-07  1.10006344E-07
  1.29327719E-04  5.74038686E-03  1.34126187E-07 -3.00906897E-07 -2.61013726E-06
  5.35303738E-06  2.57841243E-01 -1.15955989E-07 -1.02535766E-06  2.38134063E-06
  1.12613071E-01  1.38851510E-07 -2.13222547E-07  7.25297880E-08 -1.83210778E-07
 -5.03604108E-03 -2.75802420E-03 -1.19804666E-01 -7.22552743E-02  1.19804695E-01
  7.22552835E-02  1.19805192E-01  7.22552963E-02 -1.19805222E-01 -7.22553546E-02
 -1.19804703E-01 -7.22552741E-02  1.19804581E-01  7.22552517E-02 -9.62479245E-03
  8.11699887E-03  2.61164724E-01 -1.58731312E-01  4.72775110E-06  4.44767086E-02
  9.00037145E-02 -5.47025434E-02  1.41019595E-06 -1.19488153E-02 -4.10134511E-03
  2.33510139E-02  8.73370554E-03 -7.29157122E-07  4.46916127E-07 -9.62463676E-03
  8.11667082E-03  6.88405086E-03  3.05540797E-01 -3.74611258E-06  4.44763106E-02
  2.37241464E-03  1.05296640E-01 -8.29398045E-07  4.87146792E-04 -1.65372586E-02
  2.33510199E-02 -4.43151714E-04 -6.93484050E-08  9.32787241E-07 -9.62475347E-03
  8.11693302E-03 -2.68048614E-01 -1.46807680E-01 -7.99772117E-07  4.44765472E-02
 -9.23760590E-02 -5.05933765E-02 -4.95154079E-07 -1.26134990E-02 -3.43664473E-03
  2.33509929E-02 -8.29057350E-03 -2.58552460E-07  6.43812914E-07  1.08559728E-01
  8.33771008E-02  1.08558878E-01  8.33767305E-02  1.08560197E-01  8.33773973E-02
  1.08558070E-01  8.33763846E-02  1.08559812E-01  8.33771287E-02  1.08558641E-01
  8.33765665E-02 -8.15433987E-11  8.39398187E-08  9.60559179E-06 -1.19446958E-07
 -3.05561765E-01 -6.65831489E-07  5.75423299E-06 -7.93134015E-07 -1.96387993E-01
  3.70829434E-07  2.64513197E-07 -6.51804134E-07 -7.90525441E-07 -2.67598260E-02
  1.12503423E-02  1.59994082E-07 -4.85562235E-07 -1.01609473E-06 -4.49599944E-06
 -9.38887761E-03  9.84849531E-08 -4.82535654E-07 -2.82438953E-06 -6.03431088E-03
  5.84345038E-07 -9.83383105E-08 -4.80174023E-07 -5.64480976E-08 -8.21465824E-03
 -6.97318554E-04 -1.18624009E-07  2.46848830E-07 -8.40733745E-06  1.15922417E-05
  3.14950794E-01  4.61999234E-07 -4.70539661E-06  6.66161734E-06  2.02422363E-01
  1.58078946E-07 -3.01068801E-07  1.56845714E-07 -1.72447569E-07 -2.78343903E-02
 -1.07838081E-02  1.79454934E-01  1.42179863E-01 -1.79452622E-01 -1.42178011E-01
 -5.51604176E-03 -4.37025129E-03  5.51195395E-03  4.36710174E-03 -1.84966794E-01
 -1.46546804E-01  1.84968941E-01  1.46548578E-01 -5.81253780E-08  1.72076670E-07
 -5.12820410E-07  3.12111372E-06 -1.87258148E-01  9.23097492E-07 -1.10875754E-07
  1.39819908E-06 -1.20352847E-01  3.59132883E-07  7.45710073E-07 -1.08804961E-06
 -2.12020553E-07 -1.14045079E-02  1.51126310E-02 -4.59639821E-08  3.12428205E-07
  4.86843965E-06  4.97109532E-06  3.58252537E-01 -1.90890459E-07  2.12384613E-06
  3.84262654E-06  2.30252986E-01 -7.68343966E-09  1.29962419E-06 -1.30833159E-06
 -5.37884781E-07  5.43446982E-04  3.36578534E-02 -2.31825599E-07  7.63960693E-07
  2.08964936E-06 -7.84770021E-06 -1.70996098E-01  3.93984093E-07  7.65193143E-07
 -4.67979927E-06 -1.09900963E-01  2.13188799E-08  6.98825724E-08 -9.92197770E-08
  2.20719927E-07  1.06302431E-02  1.40380709E-02  1.09972954E-01  8.71302935E-02
 -1.09977335E-01 -8.71340181E-02  2.10398239E-01  1.66696037E-01 -2.10399467E-01
 -1.66697346E-01  1.00425705E-01  7.95660657E-02 -1.00423430E-01 -7.95646446E-02
 -1.03638208E-02  1.64408405E-02 -2.57511981E-02  3.12591202E-01 -8.00414483E-07
  7.88902985E-02 -2.93167925E-02  2.06950781E-01 -4.07680303E-07 -1.14678784E-02
  2.54684510E-02 -1.26552057E-02  3.17621039E-03  2.13848120E-07 -8.73841820E-07
 -1.62661267E-03  2.58047245E-03  4.15807506E-01 -3.83101222E-02 -3.22222292E-06
  1.23815433E-02  2.64790570E-01 -2.67724653E-02 -2.65552784E-06  1.69642556E-03
  5.00898724E-04 -1.98618160E-03 -2.87348282E-02  4.42233492E-07 -9.96468222E-07
  1.19904335E-02 -1.90212349E-02 -1.08861313E-01 -2.45259825E-01  6.94514165E-06
 -9.12720213E-02 -8.46737315E-02 -1.64614552E-01  4.80293370E-06  6.89922249E-03
 -2.30971385E-02  1.46413562E-02  6.28651187E-03 -3.84802012E-07  5.87468151E-07
 -6.97638070E-02 -6.79470440E-02 -6.97600020E-02 -6.79429143E-02 -1.09525056E-02
 -1.06675914E-02 -1.09452512E-02 -1.06598047E-02  8.07091327E-02  7.86067744E-02
  8.07123277E-02  7.86102078E-02  7.86194799E-03 -1.24719663E-02  2.93242417E-01
  2.13215648E-01  6.59036113E-06 -5.98451637E-02  1.96575201E-01  1.29851389E-01
  5.01642479E-06 -1.91876300E-02  8.56711339E-03  9.59981212E-03 -1.91140964E-02
  3.97820839E-07 -3.32624245E-07 -1.29063641E-02  2.04745360E-02 -5.76574566E-02
 -2.28343114E-01  5.27136581E-06  9.82431837E-02 -3.71483000E-02 -1.64256334E-01
  3.92737366E-06  2.24760173E-02 -5.04091771E-03 -1.57596507E-02  2.90126099E-03
  4.92167807E-07 -1.42343778E-07  5.04466340E-03 -8.00272299E-03 -2.64605840E-01
  2.96325960E-01 -1.56225579E-05 -3.83996627E-02 -1.74990315E-01  1.85208471E-01
 -1.06380591E-05 -1.99783115E-02  1.31636935E-02  6.15964801E-03  1.95293784E-02
  6.38452091E-08  4.22255056E-07  5.29167349E-02  5.15378366E-02  5.29223834E-02
  5.15438757E-02 -8.68749212E-02 -8.46122886E-02 -8.68759847E-02 -8.46133767E-02
  3.39595770E-02  3.30750649E-02  3.39516553E-02  3.30665652E-02 -6.08155936E-02
  7.04638929E-02  9.11404163E-02 -5.53936187E-02  2.29247429E-06  1.15749794E+00
  4.29764529E-01 -2.61203808E-01  1.16733153E-05  2.13170590E-03  3.01114347E-03
 -1.04436664E-02  9.78738600E-04  4.92657347E-09 -3.69592360E-07 -6.08160917E-02
  7.04645171E-02  2.40236254E-03  1.06626864E-01 -2.28695666E-06  1.15750438E+00
  1.13278973E-02  5.02789276E-01 -1.39265458E-05  3.52530467E-03  1.61750331E-03
 -1.04436809E-02 -4.96564522E-05  3.30722512E-07 -2.70505878E-07 -6.08155616E-02
  7.04639087E-02 -9.35426756E-02 -5.12324334E-02  6.76493380E-07  1.15749717E+00
 -4.41092757E-01 -2.41582584E-01  4.38950025E-06  2.05722463E-03  3.08563638E-03
 -1.04436549E-02 -9.29075098E-04  8.11645066E-08 -9.18633478E-08 -1.30150751E-02
 -7.98650004E-01 -1.30153745E-02 -7.98654317E-01 -1.30151478E-02 -7.98653428E-01
 -1.30153515E-02 -7.98657868E-01 -1.30150614E-02 -7.98649011E-01 -1.30153148E-02
 -7.98654728E-01 -5.43658670E-07  8.02466851E-07 -6.28808583E-07 -7.39783339E-06
 -1.87920100E-01  6.37613860E-06  4.38697151E-06 -1.59549675E-05 -5.80842200E-01
 -7.51836617E-07 -1.15896124E-07  8.21763137E-07  3.28217827E-07  2.34730785E-02
 -1.42665469E-02  5.46669947E-07 -1.13347322E-06  7.75092839E-06 -3.11471138E-06
 -1.87920546E-01 -3.13022661E-06  1.35602252E-05 -1.32816805E-05 -5.80846615E-01
  6.26940800E-08  8.30443720E-07 -8.55700542E-07  2.19925470E-07  6.18727241E-04
  2.74615379E-02 -2.15703329E-07  5.77074014E-07 -1.45001439E-06  2.52198999E-06
 -1.87919957E-01  1.11906869E-06 -1.99384466E-06 -2.50450407E-06 -5.80841703E-01
  8.24006385E-07 -8.34910351E-07  6.77460318E-09 -6.18639016E-07 -2.40917958E-02
 -1.31948646E-02 -4.57882668E-02 -8.30511881E-01  4.57881500E-02  8.30505111E-01
  4.57880525E-02  8.30513711E-01 -4.57880254E-02 -8.30510246E-01 -4.57881766E-02
 -8.30509285E-01  4.57881726E-02  8.30506673E-01 -1.24762653E-01  7.51406448E-02
  3.59005741E-02 -3.39210428E-02 -4.21672031E-07  2.34907135E+00 -2.24944106E-01
 -1.37393472E-01 -5.80870912E-06 -8.65774496E-03 -7.79954778E-03 -2.34777220E-03
 -1.02647455E-02  9.58655208E-08  7.63590350E-08  1.21761418E-03 -7.33319834E-04
 -2.09730338E-02  9.55409201E-07  2.00121249E-06 -2.29260405E-02 -4.75267384E-01
  1.18877156E-02  4.71680960E-06 -2.53695093E-04  4.14315265E-04  2.29146568E-05
 -1.04794015E-02  1.17452171E-07 -2.45886233E-07  1.23545064E-01 -7.44073320E-02
  3.68302278E-02  3.23138450E-02 -3.52940980E-07 -2.32614626E+00 -2.20852931E-01
  1.54085849E-01 -6.14316507E-06  7.92876687E-03  8.36791800E-03  2.32485674E-03
 -1.02777027E-02  1.08132721E-07 -1.37364768E-07 -1.62107171E-03 -9.81641634E-01
 -1.62062874E-03 -9.81630764E-01  1.52055934E-05  9.57129524E-03  1.64974596E-05
  9.58978230E-03  1.60470058E-03  9.72056207E-01  1.60533188E-03  9.72056193E-01
  7.06258405E-02 -4.25353201E-02 -3.28445362E-02 -1.39861321E-03 -3.52831739E-06
 -1.32977539E+00 -1.56431152E-01 -3.89111372E-01 -9.80136376E-06 -4.36293667E-03
  1.36790630E-02  1.32905337E-03  2.61404076E-04 -1.09141560E-08 -2.66543146E-07