
    -----------------------------------------------------------------------
          Psi4: An Open-Source Ab Initio Electronic Structure Package
                               Psi4 1.3.2 release

                         Git: Rev {HEAD} ecbda83 


    R. M. Parrish, L. A. Burns, D. G. A. Smith, A. C. Simmonett,
    A. E. DePrince III, E. G. Hohenstein, U. Bozkaya, A. Yu. Sokolov,
    R. Di Remigio, R. M. Richard, J. F. Gonthier, A. M. James,
    H. R. McAlexander, A. Kumar, M. Saitow, X. Wang, B. P. Pritchard,
    P. Verma, H. F. Schaefer III, K. Patkowski, R. A. King, E. F. Valeev,
    F. A. Evangelista, J. M. Turney, T. D. Crawford, and C. D. Sherrill,
    J. Chem. Theory Comput. 13(7) pp 3185--3197 (2017).
    (doi: 10.1021/acs.jctc.7b00174)


                         Additional Contributions by
    P. Kraus, H. Kruse, M. H. Lechner, M. C. Schieber, R. A. Shaw,
    A. Alenaizan, R. Galvelis, Z. L. Glick, S. Lehtola, and J. P. Misiewicz

    -----------------------------------------------------------------------


    Psi4 started on: Tuesday, 10 November 2020 01:06PM

    Process ID: 31017
    Host:       node91.bme.utexas.edu
    PSIDATADIR: /home/xy3866/psi4conda/share/psi4
    Memory:     500.0 MiB
    Threads:    8
    
  ==> Input File <==

--------------------------------------------------------------------------
#psi4
#
memory 32 gb

molecule  {
0 1
  P       -2.2900960    -0.9400430     0.3446780
  O       -0.9821530    -0.2015620     0.9382890
  O        1.3422500    -1.6754830     1.2308510
  O        0.0256012     2.3169176     0.4321992
  O        3.0685150    -2.1870720    -0.8085900
  O        2.8473350     2.5031130     0.3715350
  O        4.1956880     0.4353970    -0.9728740
  O       -2.8268630     0.0333510    -0.8075310
  O       -3.2591210    -0.7232820     1.6216710
  O       -2.1189930    -2.3436440    -0.0996680
  C        0.0580969     0.0794491     0.0017945
  C        0.9532920    -1.2442050    -0.0757250
  C        0.8985890     1.2026440     0.5648510
  C        2.2596600    -1.0143070    -0.8180370
  C        2.1770750     1.3964720    -0.2280410
  C        3.0258420     0.1487050    -0.2103220
  C       -3.1242130     1.4315980    -0.4888860
  C       -3.5363170     2.0851650    -1.7841190
  H       -0.2830920     0.2988010    -0.9702380
  H        0.3702690    -2.0293640    -0.5720320
  H        1.1571200     0.9978770     1.6121560
  H        2.0609340    -0.7886600    -1.8727560
  H        1.9169870     1.6362870    -1.2735830
  H        3.2958550    -0.0945320     0.8276460
  H        0.5217750    -1.8880320     1.7115100
  H        0.6655400     3.1093110     0.6831840
  H        2.9735430    -2.5473740     0.0946540
  H        3.7214290     2.5491860    -0.0588690
  H        4.6397270    -0.4238340    -1.0970870
  H       -3.8083950    -1.5223380     1.7347280
  H       -3.9305460     1.4455410     0.2493860
  H       -2.2297620     1.8928800    -0.0590960
  H       -3.8005210     3.1308820    -1.6026710
  H       -2.7171960     2.0533230    -2.5048750
  H       -4.4009440     1.5743230    -2.2127240
units angstrom
no_reorient  #important for SAPT in psi4, default
symmetry c1  #important for SAPT in psi4, default
}

set PROPERTIES_ORIGIN ["COM"]
properties('MP2/aug-cc-pvtz', properties = ['dipole'])
--------------------------------------------------------------------------

  Memory set to  29.802 GiB by Python driver.
    SCF Algorithm Type (re)set to DF.

*** tstart() called on node91.bme.utexas.edu
*** at Tue Nov 10 13:06:12 2020

   => Loading Basis Set <=

    Name: AUG-CC-PVTZ
    Role: ORBITAL
    Keyword: BASIS
    atoms 1     entry P          line   820 file /home/xy3866/psi4conda/share/psi4/basis/aug-cc-pvtz.gbs 
    atoms 2-10  entry O          line   327 file /home/xy3866/psi4conda/share/psi4/basis/aug-cc-pvtz.gbs 
    atoms 11-18 entry C          line   235 file /home/xy3866/psi4conda/share/psi4/basis/aug-cc-pvtz.gbs 
    atoms 19-35 entry H          line    36 file /home/xy3866/psi4conda/share/psi4/basis/aug-cc-pvtz.gbs 


         ---------------------------------------------------------
                                   SCF
               by Justin Turney, Rob Parrish, Andy Simmonett
                          and Daniel G. A. Smith
                              RHF Reference
                        8 Threads,  30517 MiB Core
         ---------------------------------------------------------

  ==> Geometry <==

    Molecular point group: c1
    Full point group: C1

    Geometry (in Angstrom), charge = 0, multiplicity = 1:

       Center              X                  Y                   Z               Mass       
    ------------   -----------------  -----------------  -----------------  -----------------
         P           -2.284645136117    -0.939732339381     0.346947101666    30.973761998420
         O           -0.976702136117    -0.201251339381     0.940558101666    15.994914619570
         O            1.347700863883    -1.675172339381     1.233120101666    15.994914619570
         O            0.031052063883     2.317228260619     0.434468301666    15.994914619570
         O            3.073965863883    -2.186761339381    -0.806320898334    15.994914619570
         O            2.852785863883     2.503423660619     0.373804101666    15.994914619570
         O            4.201138863883     0.435707660619    -0.970604898334    15.994914619570
         O           -2.821412136117     0.033661660619    -0.805261898334    15.994914619570
         O           -3.253670136117    -0.722971339381     1.623940101666    15.994914619570
         O           -2.113542136117    -2.343333339381    -0.097398898334    15.994914619570
         C            0.063547763883     0.079759760619     0.004063601666    12.000000000000
         C            0.958742863883    -1.243894339381    -0.073455898334    12.000000000000
         C            0.904039863883     1.202954660619     0.567120101666    12.000000000000
         C            2.265110863883    -1.013996339381    -0.815767898334    12.000000000000
         C            2.182525863883     1.396782660619    -0.225771898334    12.000000000000
         C            3.031292863883     0.149015660619    -0.208052898334    12.000000000000
         C           -3.118762136117     1.431908660619    -0.486616898334    12.000000000000
         C           -3.530866136117     2.085475660619    -1.781849898334    12.000000000000
         H           -0.277641136117     0.299111660619    -0.967968898334     1.007825032230
         H            0.375719863883    -2.029053339381    -0.569762898334     1.007825032230
         H            1.162570863883     0.998187660619     1.614425101666     1.007825032230
         H            2.066384863883    -0.788349339381    -1.870486898334     1.007825032230
         H            1.922437863883     1.636597660619    -1.271313898334     1.007825032230
         H            3.301305863883    -0.094221339381     0.829915101666     1.007825032230
         H            0.527225863883    -1.887721339381     1.713779101666     1.007825032230
         H            0.670990863883     3.109621660619     0.685453101666     1.007825032230
         H            2.978993863883    -2.547063339381     0.096923101666     1.007825032230
         H            3.726879863883     2.549496660619    -0.056599898334     1.007825032230
         H            4.645177863883    -0.423523339381    -1.094817898334     1.007825032230
         H           -3.802944136117    -1.522027339381     1.736997101666     1.007825032230
         H           -3.925095136117     1.445851660619     0.251655101666     1.007825032230
         H           -2.224311136117     1.893190660619    -0.056826898334     1.007825032230
         H           -3.795070136117     3.131192660619    -1.600401898334     1.007825032230
         H           -2.711745136117     2.053633660619    -2.502605898334     1.007825032230
         H           -4.395493136117     1.574633660619    -2.210454898334     1.007825032230

  Running in c1 symmetry.

  Rotational constants: A =      0.01983  B =      0.00843  C =      0.00688 [cm^-1]
  Rotational constants: A =    594.47804  B =    252.69414  C =    206.15027 [MHz]
  Nuclear repulsion = 1773.107895489321663

  Charge       = 0
  Multiplicity = 1
  Electrons    = 152
  Nalpha       = 76
  Nbeta        = 76

  ==> Algorithm <==

  SCF Algorithm Type is DF.
  DIIS enabled.
  MOM disabled.
  Fractional occupation disabled.
  Guess Type is SAD.
  Energy threshold   = 1.00e-10
  Density threshold  = 1.00e-10
  Integral threshold = 0.00e+00

  ==> Primary Basis <==

  Basis Set: AUG-CC-PVTZ
    Blend: AUG-CC-PVTZ
    Number of shells: 407
    Number of basis function: 1223
    Number of Cartesian functions: 1419
    Spherical Harmonics?: true
    Max angular momentum: 3

   => Loading Basis Set <=

    Name: (AUG-CC-PVTZ AUX)
    Role: JKFIT
    Keyword: DF_BASIS_SCF
    atoms 1     entry P          line   644 file /home/xy3866/psi4conda/share/psi4/basis/aug-cc-pvtz-jkfit.gbs 
    atoms 2-10  entry O          line   286 file /home/xy3866/psi4conda/share/psi4/basis/aug-cc-pvtz-jkfit.gbs 
    atoms 11-18 entry C          line   162 file /home/xy3866/psi4conda/share/psi4/basis/aug-cc-pvtz-jkfit.gbs 
    atoms 19-35 entry H          line    70 file /home/xy3866/psi4conda/share/psi4/basis/aug-cc-pvtz-jkfit.gbs 

  ==> Pre-Iterations <==

   -------------------------------------------------------
    Irrep   Nso     Nmo     Nalpha   Nbeta   Ndocc  Nsocc
   -------------------------------------------------------
     A       1223    1223       0       0       0       0
   -------------------------------------------------------
    Total    1223    1223      76      76      76       0
   -------------------------------------------------------

  ==> Integral Setup <==

  ==> DiskDFJK: Density-Fitted J/K Matrices <==

    J tasked:                  Yes
    K tasked:                  Yes
    wK tasked:                  No
    OpenMP threads:              8
    Integrals threads:           8
    Memory [MiB]:            22888
    Algorithm:                Core
    Integral Cache:           NONE
    Schwarz Cutoff:          1E-12
    Fitting Condition:       1E-10

   => Auxiliary Basis Set <=

  Basis Set: (AUG-CC-PVTZ AUX)
    Blend: AUG-CC-PVTZ-JKFIT
    Number of shells: 790
    Number of basis function: 2696
    Number of Cartesian functions: 3342
    Spherical Harmonics?: true
    Max angular momentum: 4

  Minimum eigenvalue in the overlap matrix is 8.0203819759E-07.
  Using Symmetric Orthogonalization.

  SCF Guess: Superposition of Atomic Densities via on-the-fly atomic UHF.

  ==> Iterations <==

                           Total Energy        Delta E     RMS |[F,P]|

   @DF-RHF iter SAD: -1327.10482343107583   -1.32710e+03   0.00000e+00 
   @DF-RHF iter   1: -1327.23430503197164   -1.29482e-01   9.35737e-04 DIIS
   @DF-RHF iter   2: -1327.69214490719196   -4.57840e-01   5.40035e-04 DIIS
   @DF-RHF iter   3: -1327.83645742539579   -1.44313e-01   9.07262e-05 DIIS
   @DF-RHF iter   4: -1327.84362767662606   -7.17025e-03   3.49412e-05 DIIS
   @DF-RHF iter   5: -1327.84451371643422   -8.86040e-04   8.14195e-06 DIIS
   @DF-RHF iter   6: -1327.84457582312120   -6.21067e-05   2.60543e-06 DIIS
   @DF-RHF iter   7: -1327.84458362552232   -7.80240e-06   8.67425e-07 DIIS
   @DF-RHF iter   8: -1327.84458458091922   -9.55397e-07   2.65222e-07 DIIS
   @DF-RHF iter   9: -1327.84458467779632   -9.68771e-08   8.50952e-08 DIIS
   @DF-RHF iter  10: -1327.84458468703792   -9.24160e-09   2.65265e-08 DIIS
   @DF-RHF iter  11: -1327.84458468782668   -7.88759e-10   8.16246e-09 DIIS
   @DF-RHF iter  12: -1327.84458468788216   -5.54792e-11   2.49800e-09 DIIS
   @DF-RHF iter  13: -1327.84458468788580   -3.63798e-12   8.00553e-10 DIIS
   @DF-RHF iter  14: -1327.84458468791058   -2.47837e-11   3.31498e-10 DIIS
   @DF-RHF iter  15: -1327.84458468790103    9.54969e-12   1.10187e-10 DIIS
   @DF-RHF iter  16: -1327.84458468789740    3.63798e-12   4.47719e-11 DIIS
  Energy and wave function converged.


  ==> Post-Iterations <==

    Orbital Energies [Eh]
    ---------------------

    Doubly Occupied:                                                      

       1A    -80.118161     2A    -20.615561     3A    -20.610126  
       4A    -20.599817     5A    -20.581485     6A    -20.579856  
       7A    -20.578029     8A    -20.573363     9A    -20.572439  
      10A    -20.524132    11A    -11.315958    12A    -11.301325  
      13A    -11.299466    14A    -11.297539    15A    -11.296769  
      16A    -11.296569    17A    -11.290618    18A    -11.230089  
      19A     -7.633666    20A     -5.532189    21A     -5.531805  
      22A     -5.530553    23A     -1.464354    24A     -1.410074  
      25A     -1.396851    26A     -1.390495    27A     -1.387680  
      28A     -1.370967    29A     -1.359718    30A     -1.351969  
      31A     -1.304597    32A     -1.110291    33A     -1.040797  
      34A     -1.008270    35A     -0.996800    36A     -0.882121  
      37A     -0.865818    38A     -0.852427    39A     -0.825413  
      40A     -0.812310    41A     -0.747836    42A     -0.745863  
      43A     -0.732292    44A     -0.727634    45A     -0.706356  
      46A     -0.681237    47A     -0.675588    48A     -0.673450  
      49A     -0.663023    50A     -0.660513    51A     -0.641596  
      52A     -0.631804    53A     -0.627893    54A     -0.613494  
      55A     -0.604073    56A     -0.596173    57A     -0.580430  
      58A     -0.576410    59A     -0.572216    60A     -0.560850  
      61A     -0.555332    62A     -0.547360    63A     -0.541329  
      64A     -0.536062    65A     -0.532587    66A     -0.523217  
      67A     -0.512647    68A     -0.504663    69A     -0.497571  
      70A     -0.484991    71A     -0.479332    72A     -0.475984  
      73A     -0.460890    74A     -0.455843    75A     -0.439944  
      76A     -0.431297  

    Virtual:                                                              

      77A      0.024231    78A      0.029404    79A      0.032364  
      80A      0.035332    81A      0.041470    82A      0.043274  
      83A      0.046658    84A      0.051358    85A      0.054392  
      86A      0.059698    87A      0.062281    88A      0.064344  
      89A      0.072287    90A      0.074059    91A      0.075887  
      92A      0.087577    93A      0.090287    94A      0.093390  
      95A      0.103594    96A      0.105264    97A      0.111551  
      98A      0.115372    99A      0.117341   100A      0.120151  
     101A      0.121293   102A      0.126110   103A      0.127027  
     104A      0.130568   105A      0.133718   106A      0.140704  
     107A      0.143145   108A      0.144669   109A      0.148895  
     110A      0.150273   111A      0.153939   112A      0.154525  
     113A      0.157648   114A      0.161339   115A      0.164249  
     116A      0.168708   117A      0.171552   118A      0.174103  
     119A      0.176901   120A      0.179097   121A      0.182205  
     122A      0.190016   123A      0.193196   124A      0.196972  
     125A      0.207041   126A      0.209649   127A      0.214517  
     128A      0.219640   129A      0.220993   130A      0.224154  
     131A      0.229730   132A      0.233646   133A      0.234726  
     134A      0.237767   135A      0.241828   136A      0.244042  
     137A      0.245192   138A      0.251625   139A      0.254071  
     140A      0.257024   141A      0.258397   142A      0.260983  
     143A      0.263202   144A      0.268201   145A      0.270434  
     146A      0.272143   147A      0.278135   148A      0.279144  
     149A      0.281279   150A      0.285938   151A      0.288632  
     152A      0.292931   153A      0.294898   154A      0.297678  
     155A      0.300969   156A      0.301652   157A      0.310583  
     158A      0.311253   159A      0.311556   160A      0.315627  
     161A      0.318811   162A      0.321156   163A      0.324457  
     164A      0.328904   165A      0.329392   166A      0.334988  
     167A      0.336171   168A      0.339887   169A      0.342199  
     170A      0.346292   171A      0.349582   172A      0.354953  
     173A      0.357230   174A      0.359003   175A      0.361034  
     176A      0.362855   177A      0.368880   178A      0.372402  
     179A      0.375508   180A      0.378936   181A      0.382930  
     182A      0.384168   183A      0.389737   184A      0.391877  
     185A      0.393124   186A      0.394031   187A      0.398597  
     188A      0.400681   189A      0.402574   190A      0.406407  
     191A      0.408979   192A      0.414629   193A      0.420953  
     194A      0.422823   195A      0.427441   196A      0.428281  
     197A      0.430397   198A      0.431530   199A      0.439202  
     200A      0.440071   201A      0.442817   202A      0.447839  
     203A      0.448902   204A      0.451662   205A      0.453888  
     206A      0.454939   207A      0.460396   208A      0.462151  
     209A      0.468166   210A      0.469093   211A      0.470524  
     212A      0.473891   213A      0.476507   214A      0.477203  
     215A      0.482287   216A      0.486676   217A      0.488724  
     218A      0.494784   219A      0.497415   220A      0.498479  
     221A      0.499988   222A      0.503815   223A      0.508350  
     224A      0.512223   225A      0.514625   226A      0.519890  
     227A      0.522694   228A      0.523346   229A      0.527954  
     230A      0.529638   231A      0.532536   232A      0.534248  
     233A      0.541506   234A      0.544899   235A      0.547132  
     236A      0.550212   237A      0.553351   238A      0.554931  
     239A      0.558897   240A      0.560785   241A      0.562281  
     242A      0.566276   243A      0.569342   244A      0.571163  
     245A      0.574223   246A      0.578356   247A      0.581087  
     248A      0.586483   249A      0.589646   250A      0.591895  
     251A      0.594904   252A      0.598477   253A      0.602597  
     254A      0.608134   255A      0.609780   256A      0.611082  
     257A      0.614034   258A      0.619537   259A      0.624922  
     260A      0.629030   261A      0.633097   262A      0.634168  
     263A      0.634658   264A      0.639814   265A      0.646994  
     266A      0.650274   267A      0.650999   268A      0.657149  
     269A      0.661246   270A      0.665320   271A      0.669108  
     272A      0.673848   273A      0.674444   274A      0.678719  
     275A      0.685171   276A      0.687682   277A      0.693372  
     278A      0.695227   279A      0.705295   280A      0.708021  
     281A      0.710212   282A      0.718701   283A      0.725563  
     284A      0.727574   285A      0.728311   286A      0.737392  
     287A      0.740782   288A      0.744033   289A      0.747895  
     290A      0.750998   291A      0.757443   292A      0.760012  
     293A      0.772836   294A      0.774615   295A      0.778801  
     296A      0.782505   297A      0.783639   298A      0.792919  
     299A      0.800029   300A      0.804967   301A      0.808202  
     302A      0.814031   303A      0.819272   304A      0.821438  
     305A      0.824950   306A      0.826406   307A      0.837855  
     308A      0.841211   309A      0.844045   310A      0.846422  
     311A      0.849845   312A      0.853855   313A      0.860619  
     314A      0.862655   315A      0.869170   316A      0.877508  
     317A      0.878098   318A      0.882921   319A      0.885847  
     320A      0.891763   321A      0.898942   322A      0.904356  
     323A      0.906284   324A      0.907753   325A      0.909818  
     326A      0.914801   327A      0.918705   328A      0.922972  
     329A      0.924783   330A      0.929708   331A      0.934449  
     332A      0.940003   333A      0.941858   334A      0.943474  
     335A      0.945906   336A      0.950873   337A      0.951773  
     338A      0.957870   339A      0.959769   340A      0.966111  
     341A      0.967807   342A      0.975102   343A      0.977861  
     344A      0.981377   345A      0.988435   346A      0.991506  
     347A      0.995841   348A      0.997781   349A      1.000955  
     350A      1.003417   351A      1.004146   352A      1.008181  
     353A      1.013426   354A      1.019549   355A      1.020380  
     356A      1.024226   357A      1.030888   358A      1.033598  
     359A      1.040830   360A      1.042217   361A      1.048882  
     362A      1.054816   363A      1.056439   364A      1.058336  
     365A      1.061733   366A      1.063715   367A      1.070344  
     368A      1.074401   369A      1.075987   370A      1.078044  
     371A      1.083766   372A      1.087084   373A      1.090674  
     374A      1.093426   375A      1.096886   376A      1.100259  
     377A      1.104904   378A      1.106863   379A      1.110391  
     380A      1.112379   381A      1.114289   382A      1.119641  
     383A      1.126908   384A      1.127529   385A      1.134170  
     386A      1.134771   387A      1.138568   388A      1.142398  
     389A      1.143215   390A      1.146643   391A      1.154874  
     392A      1.157495   393A      1.163419   394A      1.164897  
     395A      1.171752   396A      1.174356   397A      1.177905  
     398A      1.180041   399A      1.182506   400A      1.186992  
     401A      1.191180   402A      1.195168   403A      1.197361  
     404A      1.203480   405A      1.206842   406A      1.211862  
     407A      1.212484   408A      1.215677   409A      1.217027  
     410A      1.224421   411A      1.226281   412A      1.228603  
     413A      1.232437   414A      1.236279   415A      1.241493  
     416A      1.245397   417A      1.250010   418A      1.252319  
     419A      1.258934   420A      1.263654   421A      1.267666  
     422A      1.270599   423A      1.273727   424A      1.282955  
     425A      1.283864   426A      1.287854   427A      1.293179  
     428A      1.294589   429A      1.302405   430A      1.305830  
     431A      1.313096   432A      1.315790   433A      1.316257  
     434A      1.324402   435A      1.328270   436A      1.334468  
     437A      1.341844   438A      1.346079   439A      1.350540  
     440A      1.357725   441A      1.366263   442A      1.368056  
     443A      1.375198   444A      1.378378   445A      1.379774  
     446A      1.387830   447A      1.392770   448A      1.393897  
     449A      1.397639   450A      1.403729   451A      1.412537  
     452A      1.414593   453A      1.423391   454A      1.423790  
     455A      1.429437   456A      1.434253   457A      1.440091  
     458A      1.445493   459A      1.448329   460A      1.455004  
     461A      1.466797   462A      1.469567   463A      1.471981  
     464A      1.473879   465A      1.478808   466A      1.483143  
     467A      1.490618   468A      1.500951   469A      1.504693  
     470A      1.507228   471A      1.514069   472A      1.519268  
     473A      1.522547   474A      1.526054   475A      1.529285  
     476A      1.535706   477A      1.538623   478A      1.540726  
     479A      1.549315   480A      1.552773   481A      1.561674  
     482A      1.567647   483A      1.570924   484A      1.574692  
     485A      1.577378   486A      1.580580   487A      1.589249  
     488A      1.591610   489A      1.602583   490A      1.608173  
     491A      1.615959   492A      1.616447   493A      1.621905  
     494A      1.623834   495A      1.628342   496A      1.632125  
     497A      1.636397   498A      1.639988   499A      1.644458  
     500A      1.648748   501A      1.659303   502A      1.661690  
     503A      1.669428   504A      1.675632   505A      1.678462  
     506A      1.681117   507A      1.685541   508A      1.686267  
     509A      1.694746   510A      1.698655   511A      1.703164  
     512A      1.709790   513A      1.713248   514A      1.720901  
     515A      1.724787   516A      1.728817   517A      1.729490  
     518A      1.733321   519A      1.736620   520A      1.744202  
     521A      1.746302   522A      1.748726   523A      1.754609  
     524A      1.759023   525A      1.761444   526A      1.769787  
     527A      1.776661   528A      1.780664   529A      1.784741  
     530A      1.790902   531A      1.802533   532A      1.805322  
     533A      1.806683   534A      1.816329   535A      1.819799  
     536A      1.821749   537A      1.830076   538A      1.833979  
     539A      1.837648   540A      1.841053   541A      1.848917  
     542A      1.849817   543A      1.858773   544A      1.861927  
     545A      1.866311   546A      1.868448   547A      1.872827  
     548A      1.877907   549A      1.878510   550A      1.884254  
     551A      1.887982   552A      1.895545   553A      1.899887  
     554A      1.903486   555A      1.906932   556A      1.911203  
     557A      1.917662   558A      1.920867   559A      1.931521  
     560A      1.933103   561A      1.937529   562A      1.938704  
     563A      1.948080   564A      1.953694   565A      1.964500  
     566A      1.967033   567A      1.972882   568A      1.976445  
     569A      1.979622   570A      1.982804   571A      1.984889  
     572A      1.998129   573A      2.001123   574A      2.003773  
     575A      2.006902   576A      2.013768   577A      2.018547  
     578A      2.021599   579A      2.023870   580A      2.031701  
     581A      2.036227   582A      2.044686   583A      2.046361  
     584A      2.057052   585A      2.059868   586A      2.065945  
     587A      2.067586   588A      2.076599   589A      2.083378  
     590A      2.084686   591A      2.090302   592A      2.092613  
     593A      2.102867   594A      2.107807   595A      2.115263  
     596A      2.118693   597A      2.122808   598A      2.124921  
     599A      2.128470   600A      2.139955   601A      2.149697  
     602A      2.159156   603A      2.160815   604A      2.165752  
     605A      2.167885   606A      2.175561   607A      2.177231  
     608A      2.190267   609A      2.200282   610A      2.201610  
     611A      2.203201   612A      2.208311   613A      2.219421  
     614A      2.224163   615A      2.227120   616A      2.240176  
     617A      2.244037   618A      2.246913   619A      2.251402  
     620A      2.257786   621A      2.260422   622A      2.265898  
     623A      2.269743   624A      2.275865   625A      2.279871  
     626A      2.282434   627A      2.298502   628A      2.304906  
     629A      2.307685   630A      2.313128   631A      2.318727  
     632A      2.328850   633A      2.330129   634A      2.334097  
     635A      2.346407   636A      2.351395   637A      2.362951  
     638A      2.364694   639A      2.378778   640A      2.387264  
     641A      2.396541   642A      2.407644   643A      2.415209  
     644A      2.416618   645A      2.430070   646A      2.436612  
     647A      2.439584   648A      2.447352   649A      2.447603  
     650A      2.455351   651A      2.462100   652A      2.468928  
     653A      2.474622   654A      2.487180   655A      2.491681  
     656A      2.502505   657A      2.509394   658A      2.520987  
     659A      2.523624   660A      2.529828   661A      2.532730  
     662A      2.543867   663A      2.547617   664A      2.557329  
     665A      2.566759   666A      2.574721   667A      2.584487  
     668A      2.588029   669A      2.599443   670A      2.604326  
     671A      2.609921   672A      2.616423   673A      2.617268  
     674A      2.634700   675A      2.641895   676A      2.645228  
     677A      2.651361   678A      2.663042   679A      2.667337  
     680A      2.676492   681A      2.679481   682A      2.683628  
     683A      2.689121   684A      2.695213   685A      2.697835  
     686A      2.705113   687A      2.717706   688A      2.727205  
     689A      2.733189   690A      2.742437   691A      2.752946  
     692A      2.760589   693A      2.767812   694A      2.773226  
     695A      2.778000   696A      2.791898   697A      2.797890  
     698A      2.802820   699A      2.808944   700A      2.816286  
     701A      2.819325   702A      2.829070   703A      2.835001  
     704A      2.847003   705A      2.854690   706A      2.870621  
     707A      2.872365   708A      2.882692   709A      2.889002  
     710A      2.897719   711A      2.902558   712A      2.920264  
     713A      2.923299   714A      2.927712   715A      2.939223  
     716A      2.944038   717A      2.953848   718A      2.966006  
     719A      2.970137   720A      2.977776   721A      2.978766  
     722A      2.985549   723A      2.990893   724A      2.999494  
     725A      3.008736   726A      3.011598   727A      3.026484  
     728A      3.029964   729A      3.048216   730A      3.052131  
     731A      3.057436   732A      3.065295   733A      3.080056  
     734A      3.083448   735A      3.093442   736A      3.104029  
     737A      3.110830   738A      3.119798   739A      3.123748  
     740A      3.133527   741A      3.140653   742A      3.144032  
     743A      3.154230   744A      3.158916   745A      3.168663  
     746A      3.171052   747A      3.188152   748A      3.194037  
     749A      3.197955   750A      3.210304   751A      3.211801  
     752A      3.216848   753A      3.227425   754A      3.243385  
     755A      3.249122   756A      3.259258   757A      3.265795  
     758A      3.275031   759A      3.278529   760A      3.288682  
     761A      3.290629   762A      3.300226   763A      3.307072  
     764A      3.311507   765A      3.321091   766A      3.330672  
     767A      3.336590   768A      3.343062   769A      3.358440  
     770A      3.362121   771A      3.363186   772A      3.367702  
     773A      3.376674   774A      3.388821   775A      3.392582  
     776A      3.409541   777A      3.416603   778A      3.428729  
     779A      3.434664   780A      3.441115   781A      3.446820  
     782A      3.463070   783A      3.474669   784A      3.482703  
     785A      3.492840   786A      3.505960   787A      3.511574  
     788A      3.524222   789A      3.536564   790A      3.544196  
     791A      3.553795   792A      3.572475   793A      3.587923  
     794A      3.595499   795A      3.599189   796A      3.614279  
     797A      3.626521   798A      3.646118   799A      3.653353  
     800A      3.657581   801A      3.667806   802A      3.679126  
     803A      3.686297   804A      3.706684   805A      3.708800  
     806A      3.716816   807A      3.728827   808A      3.731983  
     809A      3.742845   810A      3.745138   811A      3.757739  
     812A      3.762750   813A      3.775348   814A      3.786937  
     815A      3.800057   816A      3.809752   817A      3.821921  
     818A      3.837672   819A      3.839087   820A      3.854745  
     821A      3.855329   822A      3.863684   823A      3.875150  
     824A      3.878133   825A      3.882300   826A      3.900443  
     827A      3.908491   828A      3.912064   829A      3.922535  
     830A      3.927235   831A      3.952870   832A      3.956065  
     833A      3.960423   834A      3.975461   835A      3.980634  
     836A      3.982790   837A      3.992815   838A      4.005382  
     839A      4.007197   840A      4.018360   841A      4.026713  
     842A      4.032730   843A      4.048902   844A      4.053853  
     845A      4.056326   846A      4.063535   847A      4.074896  
     848A      4.081247   849A      4.088769   850A      4.093961  
     851A      4.101540   852A      4.105414   853A      4.121263  
     854A      4.125557   855A      4.135922   856A      4.143306  
     857A      4.144762   858A      4.158848   859A      4.163236  
     860A      4.165043   861A      4.178892   862A      4.186068  
     863A      4.189507   864A      4.200468   865A      4.202308  
     866A      4.211356   867A      4.214106   868A      4.228513  
     869A      4.231575   870A      4.239331   871A      4.247224  
     872A      4.251759   873A      4.259342   874A      4.269140  
     875A      4.274845   876A      4.289128   877A      4.291475  
     878A      4.301225   879A      4.307325   880A      4.313776  
     881A      4.317842   882A      4.329546   883A      4.339024  
     884A      4.350678   885A      4.356086   886A      4.368497  
     887A      4.370909   888A      4.378796   889A      4.385317  
     890A      4.393909   891A      4.402433   892A      4.407890  
     893A      4.419421   894A      4.430381   895A      4.444136  
     896A      4.450792   897A      4.454307   898A      4.459935  
     899A      4.467204   900A      4.478168   901A      4.486346  
     902A      4.492384   903A      4.502334   904A      4.512616  
     905A      4.520532   906A      4.532535   907A      4.539671  
     908A      4.550380   909A      4.557793   910A      4.566836  
     911A      4.579431   912A      4.584475   913A      4.586610  
     914A      4.594779   915A      4.601791   916A      4.612802  
     917A      4.619652   918A      4.630394   919A      4.633802  
     920A      4.648019   921A      4.660509   922A      4.664598  
     923A      4.667630   924A      4.674348   925A      4.687741  
     926A      4.695932   927A      4.711647   928A      4.715242  
     929A      4.729903   930A      4.744017   931A      4.747198  
     932A      4.755620   933A      4.759259   934A      4.777989  
     935A      4.785306   936A      4.790360   937A      4.796015  
     938A      4.811760   939A      4.829297   940A      4.831620  
     941A      4.836325   942A      4.845894   943A      4.848281  
     944A      4.854795   945A      4.860533   946A      4.877769  
     947A      4.883183   948A      4.888967   949A      4.894999  
     950A      4.904092   951A      4.915208   952A      4.922799  
     953A      4.932495   954A      4.939804   955A      4.950388  
     956A      4.961925   957A      4.977042   958A      4.984109  
     959A      4.994034   960A      5.008769   961A      5.017952  
     962A      5.038761   963A      5.044626   964A      5.046529  
     965A      5.053694   966A      5.063001   967A      5.076453  
     968A      5.080522   969A      5.085289   970A      5.094256  
     971A      5.100503   972A      5.111136   973A      5.117116  
     974A      5.125677   975A      5.130051   976A      5.136327  
     977A      5.145606   978A      5.148195   979A      5.166358  
     980A      5.170617   981A      5.184890   982A      5.204564  
     983A      5.208158   984A      5.215140   985A      5.225179  
     986A      5.235057   987A      5.240560   988A      5.258825  
     989A      5.261723   990A      5.276809   991A      5.285820  
     992A      5.287304   993A      5.298601   994A      5.300082  
     995A      5.309486   996A      5.320863   997A      5.328795  
     998A      5.341573   999A      5.353008  1000A      5.357027  
    1001A      5.365280  1002A      5.370474  1003A      5.374435  
    1004A      5.386990  1005A      5.394890  1006A      5.412216  
    1007A      5.416584  1008A      5.431522  1009A      5.434295  
    1010A      5.441218  1011A      5.442180  1012A      5.467652  
    1013A      5.470675  1014A      5.479377  1015A      5.487624  
    1016A      5.506864  1017A      5.512438  1018A      5.517632  
    1019A      5.521995  1020A      5.538536  1021A      5.542563  
    1022A      5.558295  1023A      5.572017  1024A      5.581089  
    1025A      5.582187  1026A      5.597376  1027A      5.604801  
    1028A      5.610609  1029A      5.617865  1030A      5.626438  
    1031A      5.633429  1032A      5.635167  1033A      5.651091  
    1034A      5.669611  1035A      5.677271  1036A      5.695637  
    1037A      5.717896  1038A      5.724630  1039A      5.732462  
    1040A      5.748605  1041A      5.760083  1042A      5.762858  
    1043A      5.772873  1044A      5.798449  1045A      5.800250  
    1046A      5.814458  1047A      5.818467  1048A      5.828814  
    1049A      5.844310  1050A      5.848451  1051A      5.869651  
    1052A      5.888065  1053A      5.906487  1054A      5.920558  
    1055A      5.936569  1056A      5.958967  1057A      5.974598  
    1058A      6.022920  1059A      6.031859  1060A      6.046362  
    1061A      6.063636  1062A      6.078466  1063A      6.083777  
    1064A      6.110093  1065A      6.131100  1066A      6.153288  
    1067A      6.176270  1068A      6.184784  1069A      6.200067  
    1070A      6.218338  1071A      6.221529  1072A      6.279641  
    1073A      6.307425  1074A      6.333795  1075A      6.366138  
    1076A      6.371974  1077A      6.394502  1078A      6.422693  
    1079A      6.463769  1080A      6.489680  1081A      6.509499  
    1082A      6.540758  1083A      6.556342  1084A      6.715612  
    1085A      6.735804  1086A      6.763097  1087A      6.768720  
    1088A      6.773524  1089A      6.787512  1090A      6.792945  
    1091A      6.798955  1092A      6.811920  1093A      6.820279  
    1094A      6.839739  1095A      6.860025  1096A      6.873501  
    1097A      6.883244  1098A      6.891723  1099A      6.893948  
    1100A      6.904741  1101A      6.918579  1102A      6.926024  
    1103A      6.948825  1104A      6.953370  1105A      6.962022  
    1106A      6.981850  1107A      6.992334  1108A      7.014056  
    1109A      7.017909  1110A      7.029666  1111A      7.041552  
    1112A      7.046426  1113A      7.059261  1114A      7.064449  
    1115A      7.070594  1116A      7.081318  1117A      7.100247  
    1118A      7.104858  1119A      7.126856  1120A      7.130916  
    1121A      7.137871  1122A      7.154677  1123A      7.168038  
    1124A      7.177155  1125A      7.182412  1126A      7.189248  
    1127A      7.190662  1128A      7.200689  1129A      7.211656  
    1130A      7.232662  1131A      7.248463  1132A      7.262398  
    1133A      7.301842  1134A      7.305735  1135A      7.310184  
    1136A      7.322012  1137A      7.347627  1138A      7.351469  
    1139A      7.356819  1140A      7.371579  1141A      7.377167  
    1142A      7.382276  1143A      7.387553  1144A      7.412083  
    1145A      7.420960  1146A      7.431056  1147A      7.437599  
    1148A      7.456989  1149A      7.464952  1150A      7.477199  
    1151A      7.491327  1152A      7.510398  1153A      7.525349  
    1154A      7.544324  1155A      7.556937  1156A      7.564473  
    1157A      7.576011  1158A      7.581372  1159A      7.600149  
    1160A      7.617313  1161A      7.632618  1162A      7.642265  
    1163A      7.658256  1164A      7.665638  1165A      7.681393  
    1166A      7.707667  1167A      7.721535  1168A      7.747804  
    1169A      7.753659  1170A      7.776061  1171A      7.780977  
    1172A      7.799932  1173A      7.836113  1174A      7.845639  
    1175A      7.850846  1176A      7.871988  1177A      7.884109  
    1178A      7.889918  1179A      7.911383  1180A      7.929120  
    1181A      7.934596  1182A      7.943325  1183A      7.949712  
    1184A      7.977694  1185A      8.011840  1186A      8.103331  
    1187A      8.124831  1188A      8.136766  1189A      8.174440  
    1190A      8.183434  1191A      8.196987  1192A      8.208298  
    1193A      8.264635  1194A      8.302023  1195A      8.345904  
    1196A      8.355934  1197A      8.374960  1198A      8.388330  
    1199A      8.405296  1200A      8.439688  1201A      8.565227  
    1202A      8.699348  1203A      8.723479  1204A      8.762555  
    1205A      8.789778  1206A     12.044486  1207A     13.707671  
    1208A     15.246889  1209A     15.873286  1210A     16.533245  
    1211A     16.886209  1212A     16.908297  1213A     17.315406  
    1214A     17.497696  1215A     17.607361  1216A     18.201410  
    1217A     18.911800  1218A     19.005182  1219A     19.500595  
    1220A     19.575227  1221A     19.737499  1222A     19.909736  
    1223A     20.423473  

    Final Occupation by Irrep:
              A 
    DOCC [    76 ]

  @DF-RHF Final Energy: -1327.84458468789740

   => Energetics <=

    Nuclear Repulsion Energy =           1773.1078954893216633
    One-Electron Energy =               -5358.4284711271502601
    Two-Electron Energy =                2257.4759909499312016
    Total Energy =                      -1327.8445846878971679

Computation Completed

*** tstop() called on node91.bme.utexas.edu at Tue Nov 10 13:13:01 2020
Module time:
	user time   =    3018.41 seconds =      50.31 minutes
	system time =      19.91 seconds =       0.33 minutes
	total time  =        409 seconds =       6.82 minutes
Total time:
	user time   =    3018.41 seconds =      50.31 minutes
	system time =      19.91 seconds =       0.33 minutes
	total time  =        409 seconds =       6.82 minutes
   => Loading Basis Set <=

    Name: (AUG-CC-PVTZ AUX)
    Role: RIFIT
    Keyword: DF_BASIS_MP2
    atoms 1     entry P          line   590 file /home/xy3866/psi4conda/share/psi4/basis/aug-cc-pvtz-ri.gbs 
    atoms 2-10  entry O          line   264 file /home/xy3866/psi4conda/share/psi4/basis/aug-cc-pvtz-ri.gbs 
    atoms 11-18 entry C          line   148 file /home/xy3866/psi4conda/share/psi4/basis/aug-cc-pvtz-ri.gbs 
    atoms 19-35 entry H          line    30 file /home/xy3866/psi4conda/share/psi4/basis/aug-cc-pvtz-ri.gbs 


*** tstart() called on node91.bme.utexas.edu
*** at Tue Nov 10 13:13:02 2020


  //>>>>>>>>>>>>>>>>>>>>>>>>>>>>>>>>>>>//
  //               DFMP2               //
  //<<<<<<<<<<<<<<<<<<<<<<<<<<<<<<<<<<<//

	 --------------------------------------------------------
	                          DF-MP2                         
	      2nd-Order Density-Fitted Moller-Plesset Theory     
	              RMP2 Wavefunction,   8 Threads             
	                                                         
	        Rob Parrish, Justin Turney, Andy Simmonett,      
	           Ed Hohenstein, and C. David Sherrill          
	 --------------------------------------------------------

   => Auxiliary Basis Set <=

  Basis Set: (AUG-CC-PVTZ AUX)
    Blend: AUG-CC-PVTZ-RI
    Number of shells: 751
    Number of basis function: 2731
    Number of Cartesian functions: 3438
    Spherical Harmonics?: true
    Max angular momentum: 4

	 --------------------------------------------------------
	                 NBF =  1223, NAUX =  2731
	 --------------------------------------------------------
	   CLASS    FOCC     OCC    AOCC    AVIR     VIR    FVIR
	   PAIRS       0      76      76    1147    1147       0
	 --------------------------------------------------------


         ------------------------------------------------------------
                                     CPHF                           
                                  Rob Parrish                       
         ------------------------------------------------------------

  ==> Geometry <==

    Molecular point group: c1
    Full point group: C1

    Geometry (in Angstrom), charge = 0, multiplicity = 1:

       Center              X                  Y                   Z               Mass       
    ------------   -----------------  -----------------  -----------------  -----------------
         P           -2.284645136117    -0.939732339381     0.346947101666    30.973761998420
         O           -0.976702136117    -0.201251339381     0.940558101666    15.994914619570
         O            1.347700863883    -1.675172339381     1.233120101666    15.994914619570
         O            0.031052063883     2.317228260619     0.434468301666    15.994914619570
         O            3.073965863883    -2.186761339381    -0.806320898334    15.994914619570
         O            2.852785863883     2.503423660619     0.373804101666    15.994914619570
         O            4.201138863883     0.435707660619    -0.970604898334    15.994914619570
         O           -2.821412136117     0.033661660619    -0.805261898334    15.994914619570
         O           -3.253670136117    -0.722971339381     1.623940101666    15.994914619570
         O           -2.113542136117    -2.343333339381    -0.097398898334    15.994914619570
         C            0.063547763883     0.079759760619     0.004063601666    12.000000000000
         C            0.958742863883    -1.243894339381    -0.073455898334    12.000000000000
         C            0.904039863883     1.202954660619     0.567120101666    12.000000000000
         C            2.265110863883    -1.013996339381    -0.815767898334    12.000000000000
         C            2.182525863883     1.396782660619    -0.225771898334    12.000000000000
         C            3.031292863883     0.149015660619    -0.208052898334    12.000000000000
         C           -3.118762136117     1.431908660619    -0.486616898334    12.000000000000
         C           -3.530866136117     2.085475660619    -1.781849898334    12.000000000000
         H           -0.277641136117     0.299111660619    -0.967968898334     1.007825032230
         H            0.375719863883    -2.029053339381    -0.569762898334     1.007825032230
         H            1.162570863883     0.998187660619     1.614425101666     1.007825032230
         H            2.066384863883    -0.788349339381    -1.870486898334     1.007825032230
         H            1.922437863883     1.636597660619    -1.271313898334     1.007825032230
         H            3.301305863883    -0.094221339381     0.829915101666     1.007825032230
         H            0.527225863883    -1.887721339381     1.713779101666     1.007825032230
         H            0.670990863883     3.109621660619     0.685453101666     1.007825032230
         H            2.978993863883    -2.547063339381     0.096923101666     1.007825032230
         H            3.726879863883     2.549496660619    -0.056599898334     1.007825032230
         H            4.645177863883    -0.423523339381    -1.094817898334     1.007825032230
         H           -3.802944136117    -1.522027339381     1.736997101666     1.007825032230
         H           -3.925095136117     1.445851660619     0.251655101666     1.007825032230
         H           -2.224311136117     1.893190660619    -0.056826898334     1.007825032230
         H           -3.795070136117     3.131192660619    -1.600401898334     1.007825032230
         H           -2.711745136117     2.053633660619    -2.502605898334     1.007825032230
         H           -4.395493136117     1.574633660619    -2.210454898334     1.007825032230

  Nuclear repulsion = 1773.107895489321663
  Reference energy  = -1327.844584687897395

  ==> Basis Set <==

  Basis Set: AUG-CC-PVTZ
    Blend: AUG-CC-PVTZ
    Number of shells: 407
    Number of basis function: 1223
    Number of Cartesian functions: 1419
    Spherical Harmonics?: true
    Max angular momentum: 3

  ==> CGRSolver (by Rob Parrish) <==

   Number of roots    =         1
   Preconditioning    =    JACOBI
   Convergence cutoff =     1E-06
   Maximum iterations =       100

  ==> CPHFRHamiltonian (by Rob Parrish) <== 

  ==> DiskDFJK: Density-Fitted J/K Matrices <==

    J tasked:                  Yes
    K tasked:                  Yes
    wK tasked:                  No
    OpenMP threads:              8
    Integrals threads:           8
    Memory [MiB]:            22888
    Algorithm:                Core
    Integral Cache:           NONE
    Schwarz Cutoff:          1E-12
    Fitting Condition:       1E-10

   => Auxiliary Basis Set <=

  Basis Set: (AUG-CC-PVTZ AUX)
    Blend: AUG-CC-PVTZ-JKFIT
    Number of shells: 790
    Number of basis function: 2696
    Number of Cartesian functions: 3342
    Spherical Harmonics?: true
    Max angular momentum: 4

  ==> CPHF Iterations <==

  => Iterations <=

             Iter  Converged  Remaining    Residual
  CGR           1          0          1   8.076E-02
  CGR           2          0          1   1.861E-02
  CGR           3          0          1   7.288E-03
  CGR           4          0          1   2.108E-03
  CGR           5          0          1   7.298E-04
  CGR           6          0          1   2.084E-04
  CGR           7          0          1   7.183E-05
  CGR           8          0          1   2.343E-05
  CGR           9          0          1   7.740E-06
  CGR          10          0          1   2.721E-06
  CGR          11          1          0   7.554E-07

    CGRSolver converged.

	-----------------------------------------------------------
	 ==================> DF-MP2 Energies <==================== 
	-----------------------------------------------------------
	 Reference Energy          =   -1327.8445846878973953 [Eh]
	 Singles Energy            =      -0.0000000000000000 [Eh]
	 Same-Spin Energy          =      -1.0158604090953722 [Eh]
	 Opposite-Spin Energy      =      -3.0793390005584049 [Eh]
	 Correlation Energy        =      -4.0951994096537767 [Eh]
	 Total Energy              =   -1331.9397840975511826 [Eh]
	-----------------------------------------------------------
	 ================> DF-SCS-MP2 Energies <================== 
	-----------------------------------------------------------
	 SCS Same-Spin Scale       =       0.3333333333333333 [-]
	 SCS Opposite-Spin Scale   =       1.2000000000000000 [-]
	 SCS Same-Spin Energy      =      -0.3386201363651241 [Eh]
	 SCS Opposite-Spin Energy  =      -3.6952068006700856 [Eh]
	 SCS Correlation Energy    =      -4.0338269370352098 [Eh]
	 SCS Total Energy          =   -1331.8784116249325962 [Eh]
	-----------------------------------------------------------



Properties will be evaluated at   0.000000,   0.000000,   0.000000 [a0]

Properties computed using the MP2 density matrix

  Nuclear Dipole Moment: [e a0]
     X:     2.3433      Y:     9.6676      Z:    -5.2524

  Electronic Dipole Moment: [e a0]
     X:    -2.8203      Y:    -8.8821      Z:     5.5657

  Dipole Moment: [e a0]
     X:    -0.4770      Y:     0.7855      Z:     0.3133     Total:     0.9710

  Dipole Moment: [D]
     X:    -1.2125      Y:     1.9966      Z:     0.7963     Total:     2.4679


*** tstop() called on node91.bme.utexas.edu at Tue Nov 10 13:59:06 2020
Module time:
	user time   =   13450.28 seconds =     224.17 minutes
	system time =     154.73 seconds =       2.58 minutes
	total time  =       2764 seconds =      46.07 minutes
Total time:
	user time   =   16469.54 seconds =     274.49 minutes
	system time =     174.65 seconds =       2.91 minutes
	total time  =       3174 seconds =      52.90 minutes

    Psi4 stopped on: Tuesday, 10 November 2020 01:59PM
    Psi4 wall time for execution: 0:52:55.50

*** Psi4 exiting successfully. Buy a developer a beer!
