
    -----------------------------------------------------------------------
          Psi4: An Open-Source Ab Initio Electronic Structure Package
                               Psi4 1.3.2 release

                         Git: Rev {HEAD} ecbda83 


    R. M. Parrish, L. A. Burns, D. G. A. Smith, A. C. Simmonett,
    A. E. DePrince III, E. G. Hohenstein, U. Bozkaya, A. Yu. Sokolov,
    R. Di Remigio, R. M. Richard, J. F. Gonthier, A. M. James,
    H. R. McAlexander, A. Kumar, M. Saitow, X. Wang, B. P. Pritchard,
    P. Verma, H. F. Schaefer III, K. Patkowski, R. A. King, E. F. Valeev,
    F. A. Evangelista, J. M. Turney, T. D. Crawford, and C. D. Sherrill,
    J. Chem. Theory Comput. 13(7) pp 3185--3197 (2017).
    (doi: 10.1021/acs.jctc.7b00174)


                         Additional Contributions by
    P. Kraus, H. Kruse, M. H. Lechner, M. C. Schieber, R. A. Shaw,
    A. Alenaizan, R. Galvelis, Z. L. Glick, S. Lehtola, and J. P. Misiewicz

    -----------------------------------------------------------------------


    Psi4 started on: Sunday, 08 November 2020 05:37AM

    Process ID: 23539
    Host:       node92.bme.utexas.edu
    PSIDATADIR: /home/xy3866/psi4conda/share/psi4
    Memory:     500.0 MiB
    Threads:    8
    
  ==> Input File <==

--------------------------------------------------------------------------
#psi4
#
memory 32 gb

molecule  {
0 1
  P       -2.2900960    -0.9400430     0.3446780
  O       -0.9821530    -0.2015620     0.9382890
  O        1.3422500    -1.6754830     1.2308510
  O        0.0787050     2.3596040     0.4621680
  O        3.0685150    -2.1870720    -0.8085900
  O        2.8473350     2.5031130     0.3715350
  O        4.1956880     0.4353970    -0.9728740
  O       -2.8268630     0.0333510    -0.8075310
  O       -3.2591210    -0.7232820     1.6216710
  O       -2.1189930    -2.3436440    -0.0996680
  C        0.1181620     0.0300090     0.0163190
  C        0.9581066    -1.2426603    -0.0495710
  C        0.8985890     1.2026440     0.5648510
  C        2.2596600    -1.0143070    -0.8180370
  C        2.1770750     1.3964720    -0.2280410
  C        3.0258420     0.1487050    -0.2103220
  C       -3.1242130     1.4315980    -0.4888860
  C       -3.5363170     2.0851650    -1.7841190
  H       -0.2916119     0.3140922    -0.9624203
  H        0.3702690    -2.0293640    -0.5720320
  H        1.1571200     0.9978770     1.6121560
  H        2.0609340    -0.7886600    -1.8727560
  H        1.9169870     1.6362870    -1.2735830
  H        3.2958550    -0.0945320     0.8276460
  H        0.5217750    -1.8880320     1.7115100
  H        0.6655400     3.1093110     0.6831840
  H        2.9735430    -2.5473740     0.0946540
  H        3.7214290     2.5491860    -0.0588690
  H        4.6397270    -0.4238340    -1.0970870
  H       -3.8083950    -1.5223380     1.7347280
  H       -3.9305460     1.4455410     0.2493860
  H       -2.2297620     1.8928800    -0.0590960
  H       -3.8005210     3.1308820    -1.6026710
  H       -2.7171960     2.0533230    -2.5048750
  H       -4.4009440     1.5743230    -2.2127240
units angstrom
no_reorient  #important for SAPT in psi4, default
symmetry c1  #important for SAPT in psi4, default
}

set PROPERTIES_ORIGIN ["COM"]
properties('MP2/aug-cc-pvtz', properties = ['dipole'])
--------------------------------------------------------------------------

  Memory set to  29.802 GiB by Python driver.
    SCF Algorithm Type (re)set to DF.

*** tstart() called on node92.bme.utexas.edu
*** at Sun Nov  8 05:37:04 2020

   => Loading Basis Set <=

    Name: AUG-CC-PVTZ
    Role: ORBITAL
    Keyword: BASIS
    atoms 1     entry P          line   820 file /home/xy3866/psi4conda/share/psi4/basis/aug-cc-pvtz.gbs 
    atoms 2-10  entry O          line   327 file /home/xy3866/psi4conda/share/psi4/basis/aug-cc-pvtz.gbs 
    atoms 11-18 entry C          line   235 file /home/xy3866/psi4conda/share/psi4/basis/aug-cc-pvtz.gbs 
    atoms 19-35 entry H          line    36 file /home/xy3866/psi4conda/share/psi4/basis/aug-cc-pvtz.gbs 


         ---------------------------------------------------------
                                   SCF
               by Justin Turney, Rob Parrish, Andy Simmonett
                          and Daniel G. A. Smith
                              RHF Reference
                        8 Threads,  30517 MiB Core
         ---------------------------------------------------------

  ==> Geometry <==

    Molecular point group: c1
    Full point group: C1

    Geometry (in Angstrom), charge = 0, multiplicity = 1:

       Center              X                  Y                   Z               Mass       
    ------------   -----------------  -----------------  -----------------  -----------------
         P           -2.290266724846    -0.940160829767     0.343561120203    30.973761998420
         O           -0.982323724846    -0.201679829767     0.937172120203    15.994914619570
         O            1.342079275154    -1.675600829767     1.229734120203    15.994914619570
         O            0.078534275154     2.359486170233     0.461051120203    15.994914619570
         O            3.068344275154    -2.187189829767    -0.809706879797    15.994914619570
         O            2.847164275154     2.502995170233     0.370418120203    15.994914619570
         O            4.195517275154     0.435279170233    -0.973990879797    15.994914619570
         O           -2.827033724846     0.033233170233    -0.808647879797    15.994914619570
         O           -3.259291724846    -0.723399829767     1.620554120203    15.994914619570
         O           -2.119163724846    -2.343761829767    -0.100784879797    15.994914619570
         C            0.117991275154     0.029891170233     0.015202120203    12.000000000000
         C            0.957935875154    -1.242778129767    -0.050687879797    12.000000000000
         C            0.898418275154     1.202526170233     0.563734120203    12.000000000000
         C            2.259489275154    -1.014424829767    -0.819153879797    12.000000000000
         C            2.176904275154     1.396354170233    -0.229157879797    12.000000000000
         C            3.025671275154     0.148587170233    -0.211438879797    12.000000000000
         C           -3.124383724846     1.431480170233    -0.490002879797    12.000000000000
         C           -3.536487724846     2.085047170233    -1.785235879797    12.000000000000
         H           -0.291782624846     0.313974370233    -0.963537179797     1.007825032230
         H            0.370098275154    -2.029481829767    -0.573148879797     1.007825032230
         H            1.156949275154     0.997759170233     1.611039120203     1.007825032230
         H            2.060763275154    -0.788777829767    -1.873872879797     1.007825032230
         H            1.916816275154     1.636169170233    -1.274699879797     1.007825032230
         H            3.295684275154    -0.094649829767     0.826529120203     1.007825032230
         H            0.521604275154    -1.888149829767     1.710393120203     1.007825032230
         H            0.665369275154     3.109193170233     0.682067120203     1.007825032230
         H            2.973372275154    -2.547491829767     0.093537120203     1.007825032230
         H            3.721258275154     2.549068170233    -0.059985879797     1.007825032230
         H            4.639556275154    -0.423951829767    -1.098203879797     1.007825032230
         H           -3.808565724846    -1.522455829767     1.733611120203     1.007825032230
         H           -3.930716724846     1.445423170233     0.248269120203     1.007825032230
         H           -2.229932724846     1.892762170233    -0.060212879797     1.007825032230
         H           -3.800691724846     3.130764170233    -1.603787879797     1.007825032230
         H           -2.717366724846     2.053205170233    -2.505991879797     1.007825032230
         H           -4.401114724846     1.574205170233    -2.213840879797     1.007825032230

  Running in c1 symmetry.

  Rotational constants: A =      0.01975  B =      0.00842  C =      0.00687 [cm^-1]
  Rotational constants: A =    592.09615  B =    252.54597  C =    205.89616 [MHz]
  Nuclear repulsion = 1772.700263837656848

  Charge       = 0
  Multiplicity = 1
  Electrons    = 152
  Nalpha       = 76
  Nbeta        = 76

  ==> Algorithm <==

  SCF Algorithm Type is DF.
  DIIS enabled.
  MOM disabled.
  Fractional occupation disabled.
  Guess Type is SAD.
  Energy threshold   = 1.00e-10
  Density threshold  = 1.00e-10
  Integral threshold = 0.00e+00

  ==> Primary Basis <==

  Basis Set: AUG-CC-PVTZ
    Blend: AUG-CC-PVTZ
    Number of shells: 407
    Number of basis function: 1223
    Number of Cartesian functions: 1419
    Spherical Harmonics?: true
    Max angular momentum: 3

   => Loading Basis Set <=

    Name: (AUG-CC-PVTZ AUX)
    Role: JKFIT
    Keyword: DF_BASIS_SCF
    atoms 1     entry P          line   644 file /home/xy3866/psi4conda/share/psi4/basis/aug-cc-pvtz-jkfit.gbs 
    atoms 2-10  entry O          line   286 file /home/xy3866/psi4conda/share/psi4/basis/aug-cc-pvtz-jkfit.gbs 
    atoms 11-18 entry C          line   162 file /home/xy3866/psi4conda/share/psi4/basis/aug-cc-pvtz-jkfit.gbs 
    atoms 19-35 entry H          line    70 file /home/xy3866/psi4conda/share/psi4/basis/aug-cc-pvtz-jkfit.gbs 

  ==> Pre-Iterations <==

   -------------------------------------------------------
    Irrep   Nso     Nmo     Nalpha   Nbeta   Ndocc  Nsocc
   -------------------------------------------------------
     A       1223    1223       0       0       0       0
   -------------------------------------------------------
    Total    1223    1223      76      76      76       0
   -------------------------------------------------------

  ==> Integral Setup <==

  ==> DiskDFJK: Density-Fitted J/K Matrices <==

    J tasked:                  Yes
    K tasked:                  Yes
    wK tasked:                  No
    OpenMP threads:              8
    Integrals threads:           8
    Memory [MiB]:            22888
    Algorithm:                Core
    Integral Cache:           NONE
    Schwarz Cutoff:          1E-12
    Fitting Condition:       1E-10

   => Auxiliary Basis Set <=

  Basis Set: (AUG-CC-PVTZ AUX)
    Blend: AUG-CC-PVTZ-JKFIT
    Number of shells: 790
    Number of basis function: 2696
    Number of Cartesian functions: 3342
    Spherical Harmonics?: true
    Max angular momentum: 4

  Minimum eigenvalue in the overlap matrix is 7.2855457794E-07.
  Using Symmetric Orthogonalization.

  SCF Guess: Superposition of Atomic Densities via on-the-fly atomic UHF.

  ==> Iterations <==

                           Total Energy        Delta E     RMS |[F,P]|

   @DF-RHF iter SAD: -1327.19584961895498   -1.32720e+03   0.00000e+00 
   @DF-RHF iter   1: -1327.25194788013914   -5.60983e-02   9.36703e-04 DIIS
   @DF-RHF iter   2: -1327.71022659885352   -4.58279e-01   5.37523e-04 DIIS
   @DF-RHF iter   3: -1327.85298503732429   -1.42758e-01   9.05560e-05 DIIS
   @DF-RHF iter   4: -1327.86007519605118   -7.09016e-03   3.49732e-05 DIIS
   @DF-RHF iter   5: -1327.86095271501176   -8.77519e-04   8.04740e-06 DIIS
   @DF-RHF iter   6: -1327.86101170933807   -5.89943e-05   2.53180e-06 DIIS
   @DF-RHF iter   7: -1327.86101885163384   -7.14230e-06   8.25050e-07 DIIS
   @DF-RHF iter   8: -1327.86101969442939   -8.42796e-07   2.51258e-07 DIIS
   @DF-RHF iter   9: -1327.86101977944168   -8.50123e-08   8.04989e-08 DIIS
   @DF-RHF iter  10: -1327.86101978766555   -8.22388e-09   2.53436e-08 DIIS
   @DF-RHF iter  11: -1327.86101978831607   -6.50516e-10   7.70796e-09 DIIS
   @DF-RHF iter  12: -1327.86101978837587   -5.97993e-11   2.25407e-09 DIIS
   @DF-RHF iter  13: -1327.86101978840065   -2.47837e-11   7.07736e-10 DIIS
   @DF-RHF iter  14: -1327.86101978839702    3.63798e-12   2.95583e-10 DIIS
   @DF-RHF iter  15: -1327.86101978839883   -1.81899e-12   9.54017e-11 DIIS
  Energy and wave function converged.


  ==> Post-Iterations <==

    Orbital Energies [Eh]
    ---------------------

    Doubly Occupied:                                                      

       1A    -80.116647     2A    -20.614556     3A    -20.606341  
       4A    -20.598813     5A    -20.586244     6A    -20.576680  
       7A    -20.574414     8A    -20.573732     9A    -20.573325  
      10A    -20.523048    11A    -11.319862    12A    -11.303823  
      13A    -11.299334    14A    -11.298967    15A    -11.298114  
      16A    -11.296498    17A    -11.290921    18A    -11.229817  
      19A     -7.632096    20A     -5.530603    21A     -5.530230  
      22A     -5.529026    23A     -1.460209    24A     -1.414434  
      25A     -1.396146    26A     -1.393675    27A     -1.386732  
      28A     -1.374863    29A     -1.365052    30A     -1.354120  
      31A     -1.303466    32A     -1.118239    33A     -1.040403  
      34A     -1.011584    35A     -1.001416    36A     -0.879766  
      37A     -0.864738    38A     -0.858130    39A     -0.821925  
      40A     -0.812116    41A     -0.753704    42A     -0.745405  
      43A     -0.730815    44A     -0.728608    45A     -0.708065  
      46A     -0.687143    47A     -0.680837    48A     -0.673829  
      49A     -0.662242    50A     -0.660924    51A     -0.643208  
      52A     -0.634824    53A     -0.627686    54A     -0.616364  
      55A     -0.603383    56A     -0.598850    57A     -0.581291  
      58A     -0.575437    59A     -0.572117    60A     -0.559635  
      61A     -0.556665    62A     -0.549650    63A     -0.541347  
      64A     -0.536687    65A     -0.530588    66A     -0.521953  
      67A     -0.512894    68A     -0.503773    69A     -0.496461  
      70A     -0.484557    71A     -0.479562    72A     -0.476326  
      73A     -0.461699    74A     -0.455704    75A     -0.448696  
      76A     -0.433646  

    Virtual:                                                              

      77A      0.024422    78A      0.029512    79A      0.032118  
      80A      0.035513    81A      0.041443    82A      0.043054  
      83A      0.046710    84A      0.051522    85A      0.054391  
      86A      0.059665    87A      0.062084    88A      0.064358  
      89A      0.072380    90A      0.074074    91A      0.076044  
      92A      0.087616    93A      0.090598    94A      0.093552  
      95A      0.103608    96A      0.105274    97A      0.111618  
      98A      0.115551    99A      0.117674   100A      0.120330  
     101A      0.121261   102A      0.125764   103A      0.127569  
     104A      0.130744   105A      0.133545   106A      0.140478  
     107A      0.143179   108A      0.144781   109A      0.148732  
     110A      0.150462   111A      0.153506   112A      0.154395  
     113A      0.157730   114A      0.160745   115A      0.164481  
     116A      0.168772   117A      0.171342   118A      0.173579  
     119A      0.176869   120A      0.178430   121A      0.182105  
     122A      0.190047   123A      0.193402   124A      0.196995  
     125A      0.207319   126A      0.210077   127A      0.213708  
     128A      0.219942   129A      0.221043   130A      0.224100  
     131A      0.229943   132A      0.233473   133A      0.235380  
     134A      0.238319   135A      0.242497   136A      0.244128  
     137A      0.245259   138A      0.250980   139A      0.255291  
     140A      0.256857   141A      0.258276   142A      0.260764  
     143A      0.263179   144A      0.267472   145A      0.270163  
     146A      0.271824   147A      0.278225   148A      0.278770  
     149A      0.280944   150A      0.285950   151A      0.289714  
     152A      0.293225   153A      0.294997   154A      0.298041  
     155A      0.300592   156A      0.301153   157A      0.309865  
     158A      0.311225   159A      0.311726   160A      0.313678  
     161A      0.318623   162A      0.321953   163A      0.323881  
     164A      0.328808   165A      0.329962   166A      0.335184  
     167A      0.336281   168A      0.340239   169A      0.343029  
     170A      0.348268   171A      0.349902   172A      0.354894  
     173A      0.356991   174A      0.359544   175A      0.361180  
     176A      0.362586   177A      0.367886   178A      0.373752  
     179A      0.375342   180A      0.378066   181A      0.384231  
     182A      0.385171   183A      0.388889   184A      0.392601  
     185A      0.393184   186A      0.394069   187A      0.397461  
     188A      0.400848   189A      0.403214   190A      0.406450  
     191A      0.408685   192A      0.413457   193A      0.421051  
     194A      0.423576   195A      0.426683   196A      0.429560  
     197A      0.430885   198A      0.434210   199A      0.439966  
     200A      0.440188   201A      0.444036   202A      0.447116  
     203A      0.448387   204A      0.452905   205A      0.454772  
     206A      0.455349   207A      0.461082   208A      0.462353  
     209A      0.467433   210A      0.470854   211A      0.472125  
     212A      0.473353   213A      0.476647   214A      0.477403  
     215A      0.483220   216A      0.486196   217A      0.489135  
     218A      0.494968   219A      0.496312   220A      0.498521  
     221A      0.499908   222A      0.503892   223A      0.507503  
     224A      0.511189   225A      0.513751   226A      0.520684  
     227A      0.522516   228A      0.524039   229A      0.528335  
     230A      0.530119   231A      0.531847   232A      0.534402  
     233A      0.542183   234A      0.545719   235A      0.547327  
     236A      0.549939   237A      0.553782   238A      0.555446  
     239A      0.558373   240A      0.560501   241A      0.561975  
     242A      0.567138   243A      0.568538   244A      0.571027  
     245A      0.574204   246A      0.578769   247A      0.580856  
     248A      0.585918   249A      0.589656   250A      0.591198  
     251A      0.597370   252A      0.598042   253A      0.603260  
     254A      0.607620   255A      0.609351   256A      0.611548  
     257A      0.615011   258A      0.618032   259A      0.625622  
     260A      0.628290   261A      0.631949   262A      0.633605  
     263A      0.636550   264A      0.642107   265A      0.646627  
     266A      0.649283   267A      0.652556   268A      0.658116  
     269A      0.660994   270A      0.666276   271A      0.670055  
     272A      0.673611   273A      0.675908   274A      0.677843  
     275A      0.685852   276A      0.687576   277A      0.693220  
     278A      0.696726   279A      0.704862   280A      0.709022  
     281A      0.709221   282A      0.719312   283A      0.723991  
     284A      0.727523   285A      0.729099   286A      0.737395  
     287A      0.738925   288A      0.742805   289A      0.747017  
     290A      0.752197   291A      0.757472   292A      0.758458  
     293A      0.771951   294A      0.775832   295A      0.778944  
     296A      0.781594   297A      0.787325   298A      0.794783  
     299A      0.801683   300A      0.804904   301A      0.808921  
     302A      0.811406   303A      0.819805   304A      0.823336  
     305A      0.825170   306A      0.826990   307A      0.838245  
     308A      0.840673   309A      0.845794   310A      0.846681  
     311A      0.850450   312A      0.853652   313A      0.856207  
     314A      0.862420   315A      0.868833   316A      0.878284  
     317A      0.878964   318A      0.881998   319A      0.887357  
     320A      0.891135   321A      0.898099   322A      0.904490  
     323A      0.906492   324A      0.907065   325A      0.910345  
     326A      0.913346   327A      0.917761   328A      0.921024  
     329A      0.923017   330A      0.928717   331A      0.934818  
     332A      0.938743   333A      0.939895   334A      0.943765  
     335A      0.945954   336A      0.950033   337A      0.951740  
     338A      0.957687   339A      0.961070   340A      0.966795  
     341A      0.968546   342A      0.973281   343A      0.976846  
     344A      0.982074   345A      0.984562   346A      0.991218  
     347A      0.995278   348A      0.998300   349A      0.999702  
     350A      1.003738   351A      1.005322   352A      1.009038  
     353A      1.013663   354A      1.017863   355A      1.020143  
     356A      1.023599   357A      1.030501   358A      1.033246  
     359A      1.041216   360A      1.042868   361A      1.048561  
     362A      1.053117   363A      1.054246   364A      1.058887  
     365A      1.061326   366A      1.062165   367A      1.069228  
     368A      1.073943   369A      1.075980   370A      1.078833  
     371A      1.082588   372A      1.087670   373A      1.088773  
     374A      1.092736   375A      1.097433   376A      1.099509  
     377A      1.102282   378A      1.107640   379A      1.110093  
     380A      1.112161   381A      1.114142   382A      1.118545  
     383A      1.126927   384A      1.127917   385A      1.132543  
     386A      1.135655   387A      1.141051   388A      1.142940  
     389A      1.145239   390A      1.146236   391A      1.154891  
     392A      1.159592   393A      1.162783   394A      1.164862  
     395A      1.172004   396A      1.173311   397A      1.178340  
     398A      1.179810   399A      1.182287   400A      1.186901  
     401A      1.189717   402A      1.193701   403A      1.197051  
     404A      1.202247   405A      1.207226   406A      1.210809  
     407A      1.212570   408A      1.214918   409A      1.217404  
     410A      1.223959   411A      1.226587   412A      1.230084  
     413A      1.232061   414A      1.236536   415A      1.241573  
     416A      1.245453   417A      1.249290   418A      1.253003  
     419A      1.258046   420A      1.263085   421A      1.268801  
     422A      1.270514   423A      1.276760   424A      1.281691  
     425A      1.285176   426A      1.286237   427A      1.295024  
     428A      1.295386   429A      1.301696   430A      1.306518  
     431A      1.312105   432A      1.313825   433A      1.314459  
     434A      1.324388   435A      1.327124   436A      1.335060  
     437A      1.339002   438A      1.347201   439A      1.351119  
     440A      1.360302   441A      1.367053   442A      1.368932  
     443A      1.374404   444A      1.377982   445A      1.380643  
     446A      1.386791   447A      1.392816   448A      1.393897  
     449A      1.397747   450A      1.401870   451A      1.410703  
     452A      1.412818   453A      1.422735   454A      1.424223  
     455A      1.430897   456A      1.433538   457A      1.439279  
     458A      1.446724   459A      1.449671   460A      1.455213  
     461A      1.464771   462A      1.468311   463A      1.471249  
     464A      1.473624   465A      1.479057   466A      1.482316  
     467A      1.492925   468A      1.500259   469A      1.504801  
     470A      1.506942   471A      1.514488   472A      1.518078  
     473A      1.521956   474A      1.526103   475A      1.529785  
     476A      1.533684   477A      1.538855   478A      1.541572  
     479A      1.548057   480A      1.552336   481A      1.560035  
     482A      1.566773   483A      1.570400   484A      1.574648  
     485A      1.576012   486A      1.580312   487A      1.587723  
     488A      1.591219   489A      1.602475   490A      1.606116  
     491A      1.617245   492A      1.617711   493A      1.622679  
     494A      1.623061   495A      1.628422   496A      1.633599  
     497A      1.635331   498A      1.640773   499A      1.644677  
     500A      1.649234   501A      1.659874   502A      1.663335  
     503A      1.669378   504A      1.674082   505A      1.678975  
     506A      1.682949   507A      1.684792   508A      1.687736  
     509A      1.693666   510A      1.695183   511A      1.704584  
     512A      1.712509   513A      1.714494   514A      1.722330  
     515A      1.723638   516A      1.727772   517A      1.730032  
     518A      1.731051   519A      1.736711   520A      1.740397  
     521A      1.746919   522A      1.752121   523A      1.754246  
     524A      1.755090   525A      1.761961   526A      1.771828  
     527A      1.775333   528A      1.779986   529A      1.784919  
     530A      1.791039   531A      1.801474   532A      1.803140  
     533A      1.807022   534A      1.814687   535A      1.816081  
     536A      1.819310   537A      1.829857   538A      1.833253  
     539A      1.837515   540A      1.839043   541A      1.845620  
     542A      1.851514   543A      1.856086   544A      1.865215  
     545A      1.866599   546A      1.869257   547A      1.873273  
     548A      1.876859   549A      1.879676   550A      1.884148  
     551A      1.885430   552A      1.895842   553A      1.901034  
     554A      1.902491   555A      1.912688   556A      1.913716  
     557A      1.917395   558A      1.923550   559A      1.930147  
     560A      1.932082   561A      1.938020   562A      1.942392  
     563A      1.947391   564A      1.949449   565A      1.961262  
     566A      1.965475   567A      1.973265   568A      1.976889  
     569A      1.980227   570A      1.980701   571A      1.986586  
     572A      1.996010   573A      1.998871   574A      2.002669  
     575A      2.007216   576A      2.008744   577A      2.016138  
     578A      2.022146   579A      2.023272   580A      2.029600  
     581A      2.035289   582A      2.040175   583A      2.043241  
     584A      2.053463   585A      2.058576   586A      2.065981  
     587A      2.069483   588A      2.073634   589A      2.082300  
     590A      2.086025   591A      2.089268   592A      2.097895  
     593A      2.101813   594A      2.112499   595A      2.113415  
     596A      2.120094   597A      2.121243   598A      2.126660  
     599A      2.131568   600A      2.141025   601A      2.147209  
     602A      2.157824   603A      2.161743   604A      2.164558  
     605A      2.169288   606A      2.171001   607A      2.179243  
     608A      2.188532   609A      2.196347   610A      2.198222  
     611A      2.202827   612A      2.209535   613A      2.221723  
     614A      2.223784   615A      2.228714   616A      2.239277  
     617A      2.243996   618A      2.247032   619A      2.252992  
     620A      2.258598   621A      2.260737   622A      2.265575  
     623A      2.269200   624A      2.276149   625A      2.279956  
     626A      2.283914   627A      2.297414   628A      2.304615  
     629A      2.306538   630A      2.315457   631A      2.321245  
     632A      2.324084   633A      2.331736   634A      2.336036  
     635A      2.341736   636A      2.350496   637A      2.356627  
     638A      2.365202   639A      2.382754   640A      2.386944  
     641A      2.389618   642A      2.404838   643A      2.415980  
     644A      2.420695   645A      2.429871   646A      2.434896  
     647A      2.440423   648A      2.443830   649A      2.446191  
     650A      2.450437   651A      2.461025   652A      2.469922  
     653A      2.474487   654A      2.483985   655A      2.491988  
     656A      2.506217   657A      2.508287   658A      2.519224  
     659A      2.524889   660A      2.528146   661A      2.532620  
     662A      2.541680   663A      2.547642   664A      2.555501  
     665A      2.568133   666A      2.579189   667A      2.585089  
     668A      2.592387   669A      2.597316   670A      2.600500  
     671A      2.607053   672A      2.617993   673A      2.623013  
     674A      2.637973   675A      2.643572   676A      2.647730  
     677A      2.649152   678A      2.658407   679A      2.667255  
     680A      2.674351   681A      2.682887   682A      2.688984  
     683A      2.691824   684A      2.694909   685A      2.706008  
     686A      2.710671   687A      2.718397   688A      2.728394  
     689A      2.731722   690A      2.747973   691A      2.750238  
     692A      2.758315   693A      2.767083   694A      2.779945  
     695A      2.781857   696A      2.791899   697A      2.797404  
     698A      2.802115   699A      2.807412   700A      2.815235  
     701A      2.820234   702A      2.828037   703A      2.837694  
     704A      2.853845   705A      2.861064   706A      2.869181  
     707A      2.876362   708A      2.884024   709A      2.889672  
     710A      2.893937   711A      2.903753   712A      2.917894  
     713A      2.921108   714A      2.924942   715A      2.941580  
     716A      2.946226   717A      2.958683   718A      2.964088  
     719A      2.968990   720A      2.976135   721A      2.982137  
     722A      2.990868   723A      2.996752   724A      3.001799  
     725A      3.008888   726A      3.010747   727A      3.024450  
     728A      3.031070   729A      3.047414   730A      3.056197  
     731A      3.058502   732A      3.064479   733A      3.077244  
     734A      3.081114   735A      3.095384   736A      3.108585  
     737A      3.113085   738A      3.119809   739A      3.126410  
     740A      3.132146   741A      3.137338   742A      3.143231  
     743A      3.156228   744A      3.159870   745A      3.170285  
     746A      3.175599   747A      3.193094   748A      3.198344  
     749A      3.200545   750A      3.207268   751A      3.214815  
     752A      3.222871   753A      3.232200   754A      3.238398  
     755A      3.250928   756A      3.260872   757A      3.266576  
     758A      3.273929   759A      3.280106   760A      3.290522  
     761A      3.294549   762A      3.305150   763A      3.310784  
     764A      3.312529   765A      3.328349   766A      3.330490  
     767A      3.335990   768A      3.347286   769A      3.353679  
     770A      3.361057   771A      3.367241   772A      3.375251  
     773A      3.376464   774A      3.391583   775A      3.396585  
     776A      3.407155   777A      3.415913   778A      3.428203  
     779A      3.433492   780A      3.441134   781A      3.452116  
     782A      3.453034   783A      3.476828   784A      3.481560  
     785A      3.490066   786A      3.500030   787A      3.512104  
     788A      3.513134   789A      3.529956   790A      3.539795  
     791A      3.556036   792A      3.560387   793A      3.587332  
     794A      3.592945   795A      3.601543   796A      3.616012  
     797A      3.624569   798A      3.646913   799A      3.652932  
     800A      3.654056   801A      3.672702   802A      3.680268  
     803A      3.689130   804A      3.703117   805A      3.708537  
     806A      3.721104   807A      3.730585   808A      3.733965  
     809A      3.743405   810A      3.745698   811A      3.761280  
     812A      3.765080   813A      3.781460   814A      3.787318  
     815A      3.794700   816A      3.814786   817A      3.816708  
     818A      3.833628   819A      3.840826   820A      3.849383  
     821A      3.852290   822A      3.860902   823A      3.872360  
     824A      3.877252   825A      3.883656   826A      3.902876  
     827A      3.907379   828A      3.917930   829A      3.925274  
     830A      3.931065   831A      3.949628   832A      3.954636  
     833A      3.966257   834A      3.970127   835A      3.979096  
     836A      3.983709   837A      3.995067   838A      4.005924  
     839A      4.006991   840A      4.011774   841A      4.026216  
     842A      4.034431   843A      4.046642   844A      4.053821  
     845A      4.060391   846A      4.069068   847A      4.076029  
     848A      4.081791   849A      4.090810   850A      4.100629  
     851A      4.104915   852A      4.106356   853A      4.119545  
     854A      4.129106   855A      4.135051   856A      4.143420  
     857A      4.146557   858A      4.162423   859A      4.167427  
     860A      4.173365   861A      4.181275   862A      4.185521  
     863A      4.189758   864A      4.197913   865A      4.206050  
     866A      4.210808   867A      4.223019   868A      4.226761  
     869A      4.237408   870A      4.247460   871A      4.252452  
     872A      4.255172   873A      4.267685   874A      4.276819  
     875A      4.280660   876A      4.291854   877A      4.298318  
     878A      4.305082   879A      4.307359   880A      4.312837  
     881A      4.323946   882A      4.335665   883A      4.342512  
     884A      4.346539   885A      4.364040   886A      4.375759  
     887A      4.377491   888A      4.384229   889A      4.386285  
     890A      4.396513   891A      4.411430   892A      4.418639  
     893A      4.424129   894A      4.436155   895A      4.445177  
     896A      4.446499   897A      4.456446   898A      4.464311  
     899A      4.468198   900A      4.473026   901A      4.491202  
     902A      4.499815   903A      4.502477   904A      4.507712  
     905A      4.522610   906A      4.538831   907A      4.542617  
     908A      4.548251   909A      4.559259   910A      4.571525  
     911A      4.580216   912A      4.586066   913A      4.589507  
     914A      4.595927   915A      4.600041   916A      4.606617  
     917A      4.621824   918A      4.634276   919A      4.638416  
     920A      4.652008   921A      4.658170   922A      4.665458  
     923A      4.668560   924A      4.683935   925A      4.691832  
     926A      4.696476   927A      4.710954   928A      4.719183  
     929A      4.730547   930A      4.742430   931A      4.750597  
     932A      4.755438   933A      4.772699   934A      4.778852  
     935A      4.788766   936A      4.796533   937A      4.804847  
     938A      4.816672   939A      4.827074   940A      4.835241  
     941A      4.839968   942A      4.844493   943A      4.851698  
     944A      4.859635   945A      4.872699   946A      4.877706  
     947A      4.891393   948A      4.894630   949A      4.900791  
     950A      4.907939   951A      4.924760   952A      4.927684  
     953A      4.934738   954A      4.952036   955A      4.965715  
     956A      4.977514   957A      4.987610   958A      4.989288  
     959A      4.997440   960A      5.005922   961A      5.021977  
     962A      5.037501   963A      5.044339   964A      5.053741  
     965A      5.057779   966A      5.069703   967A      5.079568  
     968A      5.087795   969A      5.090683   970A      5.096206  
     971A      5.107937   972A      5.113020   973A      5.123692  
     974A      5.127890   975A      5.130911   976A      5.141673  
     977A      5.154798   978A      5.159040   979A      5.169243  
     980A      5.175469   981A      5.185411   982A      5.203670  
     983A      5.214107   984A      5.214673   985A      5.233465  
     986A      5.238136   987A      5.241052   988A      5.261104  
     989A      5.266003   990A      5.276753   991A      5.281858  
     992A      5.282694   993A      5.299682   994A      5.308143  
     995A      5.314518   996A      5.320845   997A      5.331550  
     998A      5.346585   999A      5.354620  1000A      5.362725  
    1001A      5.366463  1002A      5.369033  1003A      5.381482  
    1004A      5.384853  1005A      5.396131  1006A      5.402283  
    1007A      5.422099  1008A      5.432634  1009A      5.437729  
    1010A      5.454149  1011A      5.461958  1012A      5.467106  
    1013A      5.473719  1014A      5.478377  1015A      5.493584  
    1016A      5.503887  1017A      5.510760  1018A      5.518410  
    1019A      5.537670  1020A      5.544419  1021A      5.549085  
    1022A      5.552428  1023A      5.568000  1024A      5.581000  
    1025A      5.590911  1026A      5.599375  1027A      5.610500  
    1028A      5.613510  1029A      5.622537  1030A      5.631204  
    1031A      5.638381  1032A      5.654291  1033A      5.656911  
    1034A      5.679616  1035A      5.683999  1036A      5.697979  
    1037A      5.716260  1038A      5.720643  1039A      5.737131  
    1040A      5.745530  1041A      5.755187  1042A      5.772315  
    1043A      5.779558  1044A      5.781694  1045A      5.804614  
    1046A      5.811374  1047A      5.816895  1048A      5.819285  
    1049A      5.842335  1050A      5.850048  1051A      5.875058  
    1052A      5.893668  1053A      5.915667  1054A      5.917139  
    1055A      5.933205  1056A      5.963234  1057A      5.975513  
    1058A      6.014967  1059A      6.030617  1060A      6.045287  
    1061A      6.058263  1062A      6.078171  1063A      6.088564  
    1064A      6.106762  1065A      6.132541  1066A      6.154924  
    1067A      6.168078  1068A      6.189720  1069A      6.206765  
    1070A      6.213603  1071A      6.233569  1072A      6.280356  
    1073A      6.293956  1074A      6.332681  1075A      6.360871  
    1076A      6.377049  1077A      6.394687  1078A      6.413966  
    1079A      6.465774  1080A      6.480455  1081A      6.500799  
    1082A      6.525883  1083A      6.538216  1084A      6.719762  
    1085A      6.732677  1086A      6.762895  1087A      6.770298  
    1088A      6.774897  1089A      6.787359  1090A      6.793742  
    1091A      6.807079  1092A      6.822718  1093A      6.836939  
    1094A      6.854347  1095A      6.866568  1096A      6.875808  
    1097A      6.885348  1098A      6.894180  1099A      6.900090  
    1100A      6.908215  1101A      6.931381  1102A      6.933591  
    1103A      6.950394  1104A      6.959967  1105A      6.968291  
    1106A      6.984214  1107A      6.991058  1108A      7.007818  
    1109A      7.019333  1110A      7.030470  1111A      7.042467  
    1112A      7.046452  1113A      7.056960  1114A      7.061615  
    1115A      7.068953  1116A      7.083341  1117A      7.097017  
    1118A      7.108011  1119A      7.124799  1120A      7.130567  
    1121A      7.144427  1122A      7.151443  1123A      7.168969  
    1124A      7.178842  1125A      7.182860  1126A      7.187668  
    1127A      7.192685  1128A      7.197129  1129A      7.212592  
    1130A      7.238830  1131A      7.244035  1132A      7.287132  
    1133A      7.299782  1134A      7.309107  1135A      7.320699  
    1136A      7.344562  1137A      7.348712  1138A      7.357181  
    1139A      7.370455  1140A      7.374334  1141A      7.382974  
    1142A      7.395124  1143A      7.411362  1144A      7.420805  
    1145A      7.434017  1146A      7.438837  1147A      7.439791  
    1148A      7.458725  1149A      7.469259  1150A      7.482236  
    1151A      7.494220  1152A      7.510791  1153A      7.523487  
    1154A      7.550756  1155A      7.551734  1156A      7.566397  
    1157A      7.580258  1158A      7.593563  1159A      7.593865  
    1160A      7.625804  1161A      7.629101  1162A      7.640950  
    1163A      7.659836  1164A      7.665023  1165A      7.681944  
    1166A      7.700961  1167A      7.715590  1168A      7.749122  
    1169A      7.755201  1170A      7.774773  1171A      7.782662  
    1172A      7.803327  1173A      7.835069  1174A      7.849069  
    1175A      7.854694  1176A      7.868275  1177A      7.884208  
    1178A      7.891611  1179A      7.914692  1180A      7.930747  
    1181A      7.938170  1182A      7.946581  1183A      7.950979  
    1184A      7.982155  1185A      8.019017  1186A      8.099881  
    1187A      8.127605  1188A      8.132336  1189A      8.172000  
    1190A      8.180919  1191A      8.194860  1192A      8.205845  
    1193A      8.260037  1194A      8.304269  1195A      8.346495  
    1196A      8.360724  1197A      8.369850  1198A      8.388048  
    1199A      8.406524  1200A      8.422969  1201A      8.694487  
    1202A      8.715040  1203A      8.749674  1204A      8.774447  
    1205A      8.808408  1206A     11.994770  1207A     13.695158  
    1208A     15.247439  1209A     15.861773  1210A     16.833919  
    1211A     16.901547  1212A     17.125640  1213A     17.234002  
    1214A     17.521741  1215A     17.838537  1216A     18.186176  
    1217A     18.893273  1218A     19.182298  1219A     19.485783  
    1220A     19.688590  1221A     19.698556  1222A     19.825261  
    1223A     20.488418  

    Final Occupation by Irrep:
              A 
    DOCC [    76 ]

  @DF-RHF Final Energy: -1327.86101978839883

   => Energetics <=

    Nuclear Repulsion Energy =           1772.7002638376568484
    One-Electron Energy =               -5357.5332109434948507
    Two-Electron Energy =                2256.9719273174387126
    Total Energy =                      -1327.8610197883990622

Computation Completed

*** tstop() called on node92.bme.utexas.edu at Sun Nov  8 05:43:21 2020
Module time:
	user time   =    2815.59 seconds =      46.93 minutes
	system time =      19.10 seconds =       0.32 minutes
	total time  =        377 seconds =       6.28 minutes
Total time:
	user time   =    2815.59 seconds =      46.93 minutes
	system time =      19.10 seconds =       0.32 minutes
	total time  =        377 seconds =       6.28 minutes
   => Loading Basis Set <=

    Name: (AUG-CC-PVTZ AUX)
    Role: RIFIT
    Keyword: DF_BASIS_MP2
    atoms 1     entry P          line   590 file /home/xy3866/psi4conda/share/psi4/basis/aug-cc-pvtz-ri.gbs 
    atoms 2-10  entry O          line   264 file /home/xy3866/psi4conda/share/psi4/basis/aug-cc-pvtz-ri.gbs 
    atoms 11-18 entry C          line   148 file /home/xy3866/psi4conda/share/psi4/basis/aug-cc-pvtz-ri.gbs 
    atoms 19-35 entry H          line    30 file /home/xy3866/psi4conda/share/psi4/basis/aug-cc-pvtz-ri.gbs 


*** tstart() called on node92.bme.utexas.edu
*** at Sun Nov  8 05:43:21 2020


  //>>>>>>>>>>>>>>>>>>>>>>>>>>>>>>>>>>>//
  //               DFMP2               //
  //<<<<<<<<<<<<<<<<<<<<<<<<<<<<<<<<<<<//

	 --------------------------------------------------------
	                          DF-MP2                         
	      2nd-Order Density-Fitted Moller-Plesset Theory     
	              RMP2 Wavefunction,   8 Threads             
	                                                         
	        Rob Parrish, Justin Turney, Andy Simmonett,      
	           Ed Hohenstein, and C. David Sherrill          
	 --------------------------------------------------------

   => Auxiliary Basis Set <=

  Basis Set: (AUG-CC-PVTZ AUX)
    Blend: AUG-CC-PVTZ-RI
    Number of shells: 751
    Number of basis function: 2731
    Number of Cartesian functions: 3438
    Spherical Harmonics?: true
    Max angular momentum: 4

	 --------------------------------------------------------
	                 NBF =  1223, NAUX =  2731
	 --------------------------------------------------------
	   CLASS    FOCC     OCC    AOCC    AVIR     VIR    FVIR
	   PAIRS       0      76      76    1147    1147       0
	 --------------------------------------------------------


         ------------------------------------------------------------
                                     CPHF                           
                                  Rob Parrish                       
         ------------------------------------------------------------

  ==> Geometry <==

    Molecular point group: c1
    Full point group: C1

    Geometry (in Angstrom), charge = 0, multiplicity = 1:

       Center              X                  Y                   Z               Mass       
    ------------   -----------------  -----------------  -----------------  -----------------
         P           -2.290266724846    -0.940160829767     0.343561120203    30.973761998420
         O           -0.982323724846    -0.201679829767     0.937172120203    15.994914619570
         O            1.342079275154    -1.675600829767     1.229734120203    15.994914619570
         O            0.078534275154     2.359486170233     0.461051120203    15.994914619570
         O            3.068344275154    -2.187189829767    -0.809706879797    15.994914619570
         O            2.847164275154     2.502995170233     0.370418120203    15.994914619570
         O            4.195517275154     0.435279170233    -0.973990879797    15.994914619570
         O           -2.827033724846     0.033233170233    -0.808647879797    15.994914619570
         O           -3.259291724846    -0.723399829767     1.620554120203    15.994914619570
         O           -2.119163724846    -2.343761829767    -0.100784879797    15.994914619570
         C            0.117991275154     0.029891170233     0.015202120203    12.000000000000
         C            0.957935875154    -1.242778129767    -0.050687879797    12.000000000000
         C            0.898418275154     1.202526170233     0.563734120203    12.000000000000
         C            2.259489275154    -1.014424829767    -0.819153879797    12.000000000000
         C            2.176904275154     1.396354170233    -0.229157879797    12.000000000000
         C            3.025671275154     0.148587170233    -0.211438879797    12.000000000000
         C           -3.124383724846     1.431480170233    -0.490002879797    12.000000000000
         C           -3.536487724846     2.085047170233    -1.785235879797    12.000000000000
         H           -0.291782624846     0.313974370233    -0.963537179797     1.007825032230
         H            0.370098275154    -2.029481829767    -0.573148879797     1.007825032230
         H            1.156949275154     0.997759170233     1.611039120203     1.007825032230
         H            2.060763275154    -0.788777829767    -1.873872879797     1.007825032230
         H            1.916816275154     1.636169170233    -1.274699879797     1.007825032230
         H            3.295684275154    -0.094649829767     0.826529120203     1.007825032230
         H            0.521604275154    -1.888149829767     1.710393120203     1.007825032230
         H            0.665369275154     3.109193170233     0.682067120203     1.007825032230
         H            2.973372275154    -2.547491829767     0.093537120203     1.007825032230
         H            3.721258275154     2.549068170233    -0.059985879797     1.007825032230
         H            4.639556275154    -0.423951829767    -1.098203879797     1.007825032230
         H           -3.808565724846    -1.522455829767     1.733611120203     1.007825032230
         H           -3.930716724846     1.445423170233     0.248269120203     1.007825032230
         H           -2.229932724846     1.892762170233    -0.060212879797     1.007825032230
         H           -3.800691724846     3.130764170233    -1.603787879797     1.007825032230
         H           -2.717366724846     2.053205170233    -2.505991879797     1.007825032230
         H           -4.401114724846     1.574205170233    -2.213840879797     1.007825032230

  Nuclear repulsion = 1772.700263837656848
  Reference energy  = -1327.861019788398835

  ==> Basis Set <==

  Basis Set: AUG-CC-PVTZ
    Blend: AUG-CC-PVTZ
    Number of shells: 407
    Number of basis function: 1223
    Number of Cartesian functions: 1419
    Spherical Harmonics?: true
    Max angular momentum: 3

  ==> CGRSolver (by Rob Parrish) <==

   Number of roots    =         1
   Preconditioning    =    JACOBI
   Convergence cutoff =     1E-06
   Maximum iterations =       100

  ==> CPHFRHamiltonian (by Rob Parrish) <== 

  ==> DiskDFJK: Density-Fitted J/K Matrices <==

    J tasked:                  Yes
    K tasked:                  Yes
    wK tasked:                  No
    OpenMP threads:              8
    Integrals threads:           8
    Memory [MiB]:            22888
    Algorithm:                Core
    Integral Cache:           NONE
    Schwarz Cutoff:          1E-12
    Fitting Condition:       1E-10

   => Auxiliary Basis Set <=

  Basis Set: (AUG-CC-PVTZ AUX)
    Blend: AUG-CC-PVTZ-JKFIT
    Number of shells: 790
    Number of basis function: 2696
    Number of Cartesian functions: 3342
    Spherical Harmonics?: true
    Max angular momentum: 4

  ==> CPHF Iterations <==

  => Iterations <=

             Iter  Converged  Remaining    Residual
  CGR           1          0          1   8.082E-02
  CGR           2          0          1   1.847E-02
  CGR           3          0          1   7.162E-03
  CGR           4          0          1   2.053E-03
  CGR           5          0          1   7.075E-04
  CGR           6          0          1   2.016E-04
  CGR           7          0          1   6.963E-05
  CGR           8          0          1   2.262E-05
  CGR           9          0          1   7.414E-06
  CGR          10          0          1   2.626E-06
  CGR          11          1          0   7.209E-07

    CGRSolver converged.

	-----------------------------------------------------------
	 ==================> DF-MP2 Energies <==================== 
	-----------------------------------------------------------
	 Reference Energy          =   -1327.8610197883988349 [Eh]
	 Singles Energy            =      -0.0000000000000000 [Eh]
	 Same-Spin Energy          =      -1.0146495003851190 [Eh]
	 Opposite-Spin Energy      =      -3.0758371787571321 [Eh]
	 Correlation Energy        =      -4.0904866791422512 [Eh]
	 Total Energy              =   -1331.9515064675410940 [Eh]
	-----------------------------------------------------------
	 ================> DF-SCS-MP2 Energies <================== 
	-----------------------------------------------------------
	 SCS Same-Spin Scale       =       0.3333333333333333 [-]
	 SCS Opposite-Spin Scale   =       1.2000000000000000 [-]
	 SCS Same-Spin Energy      =      -0.3382165001283730 [Eh]
	 SCS Opposite-Spin Energy  =      -3.6910046145085582 [Eh]
	 SCS Correlation Energy    =      -4.0292211146369308 [Eh]
	 SCS Total Energy          =   -1331.8902409030358740 [Eh]
	-----------------------------------------------------------



Properties will be evaluated at  -0.000000,   0.000000,   0.000000 [a0]

Properties computed using the MP2 density matrix

  Nuclear Dipole Moment: [e a0]
     X:     2.2509      Y:     9.6757      Z:    -5.2959

  Electronic Dipole Moment: [e a0]
     X:    -2.6824      Y:    -8.9506      Z:     5.6059

  Dipole Moment: [e a0]
     X:    -0.4315      Y:     0.7251      Z:     0.3100     Total:     0.8989

  Dipole Moment: [D]
     X:    -1.0967      Y:     1.8429      Z:     0.7878     Total:     2.2847


*** tstop() called on node92.bme.utexas.edu at Sun Nov  8 06:33:19 2020
Module time:
	user time   =   13435.98 seconds =     223.93 minutes
	system time =     177.03 seconds =       2.95 minutes
	total time  =       2998 seconds =      49.97 minutes
Total time:
	user time   =   16252.35 seconds =     270.87 minutes
	system time =     196.16 seconds =       3.27 minutes
	total time  =       3375 seconds =      56.25 minutes

    Psi4 stopped on: Sunday, 08 November 2020 06:33AM
    Psi4 wall time for execution: 0:56:15.80

*** Psi4 exiting successfully. Buy a developer a beer!
