
    -----------------------------------------------------------------------
          Psi4: An Open-Source Ab Initio Electronic Structure Package
                               Psi4 1.3.2 release

                         Git: Rev {HEAD} ecbda83 


    R. M. Parrish, L. A. Burns, D. G. A. Smith, A. C. Simmonett,
    A. E. DePrince III, E. G. Hohenstein, U. Bozkaya, A. Yu. Sokolov,
    R. Di Remigio, R. M. Richard, J. F. Gonthier, A. M. James,
    H. R. McAlexander, A. Kumar, M. Saitow, X. Wang, B. P. Pritchard,
    P. Verma, H. F. Schaefer III, K. Patkowski, R. A. King, E. F. Valeev,
    F. A. Evangelista, J. M. Turney, T. D. Crawford, and C. D. Sherrill,
    J. Chem. Theory Comput. 13(7) pp 3185--3197 (2017).
    (doi: 10.1021/acs.jctc.7b00174)


                         Additional Contributions by
    P. Kraus, H. Kruse, M. H. Lechner, M. C. Schieber, R. A. Shaw,
    A. Alenaizan, R. Galvelis, Z. L. Glick, S. Lehtola, and J. P. Misiewicz

    -----------------------------------------------------------------------


    Psi4 started on: Monday, 09 November 2020 08:04PM

    Process ID: 102129
    Host:       node92.bme.utexas.edu
    PSIDATADIR: /home/xy3866/psi4conda/share/psi4
    Memory:     500.0 MiB
    Threads:    8
    
  ==> Input File <==

--------------------------------------------------------------------------
#psi4
#
memory 32 gb

molecule  {
0 1
  P       -2.2900960    -0.9400430     0.3446780
  O       -0.9821530    -0.2015620     0.9382890
  O        1.3422500    -1.6754830     1.2308510
  O        0.0787050     2.3596040     0.4621680
  O        3.0685150    -2.1870720    -0.8085900
  O        2.8473350     2.5031130     0.3715350
  O        4.1956880     0.4353970    -0.9728740
  O       -2.8268630     0.0333510    -0.8075310
  O       -3.2591210    -0.7232820     1.6216710
  O       -2.1189930    -2.3436440    -0.0996680
  C        0.1181620     0.0300090     0.0163190
  C        0.9532920    -1.2442050    -0.0757250
  C        0.8915155     1.2051117     0.5539382
  C        2.2596600    -1.0143070    -0.8180370
  C        2.1770750     1.3964720    -0.2280410
  C        3.0258420     0.1487050    -0.2103220
  C       -3.1242130     1.4315980    -0.4888860
  C       -3.5363170     2.0851650    -1.7841190
  H       -0.2830920     0.2988010    -0.9702380
  H        0.3702690    -2.0293640    -0.5720320
  H        1.1571200     0.9978770     1.6121560
  H        2.0609340    -0.7886600    -1.8727560
  H        1.9076363     1.6356942    -1.2713485
  H        3.2958550    -0.0945320     0.8276460
  H        0.5217750    -1.8880320     1.7115100
  H        0.6655400     3.1093110     0.6831840
  H        2.9735430    -2.5473740     0.0946540
  H        3.7214290     2.5491860    -0.0588690
  H        4.6397270    -0.4238340    -1.0970870
  H       -3.8083950    -1.5223380     1.7347280
  H       -3.9305460     1.4455410     0.2493860
  H       -2.2297620     1.8928800    -0.0590960
  H       -3.8005210     3.1308820    -1.6026710
  H       -2.7171960     2.0533230    -2.5048750
  H       -4.4009440     1.5743230    -2.2127240
units angstrom
no_reorient  #important for SAPT in psi4, default
symmetry c1  #important for SAPT in psi4, default
}

set PROPERTIES_ORIGIN ["COM"]
properties('MP2/aug-cc-pvtz', properties = ['dipole'])
--------------------------------------------------------------------------

  Memory set to  29.802 GiB by Python driver.
    SCF Algorithm Type (re)set to DF.

*** tstart() called on node92.bme.utexas.edu
*** at Mon Nov  9 20:04:06 2020

   => Loading Basis Set <=

    Name: AUG-CC-PVTZ
    Role: ORBITAL
    Keyword: BASIS
    atoms 1     entry P          line   820 file /home/xy3866/psi4conda/share/psi4/basis/aug-cc-pvtz.gbs 
    atoms 2-10  entry O          line   327 file /home/xy3866/psi4conda/share/psi4/basis/aug-cc-pvtz.gbs 
    atoms 11-18 entry C          line   235 file /home/xy3866/psi4conda/share/psi4/basis/aug-cc-pvtz.gbs 
    atoms 19-35 entry H          line    36 file /home/xy3866/psi4conda/share/psi4/basis/aug-cc-pvtz.gbs 


         ---------------------------------------------------------
                                   SCF
               by Justin Turney, Rob Parrish, Andy Simmonett
                          and Daniel G. A. Smith
                              RHF Reference
                        8 Threads,  30517 MiB Core
         ---------------------------------------------------------

  ==> Geometry <==

    Molecular point group: c1
    Full point group: C1

    Geometry (in Angstrom), charge = 0, multiplicity = 1:

       Center              X                  Y                   Z               Mass       
    ------------   -----------------  -----------------  -----------------  -----------------
         P           -2.289768585593    -0.940143707379     0.345124776716    30.973761998420
         O           -0.981825585593    -0.201662707379     0.938735776716    15.994914619570
         O            1.342577414407    -1.675583707379     1.231297776716    15.994914619570
         O            0.079032414407     2.359503292621     0.462614776716    15.994914619570
         O            3.068842414407    -2.187172707379    -0.808143223284    15.994914619570
         O            2.847662414407     2.503012292621     0.371981776716    15.994914619570
         O            4.196015414407     0.435296292621    -0.972427223284    15.994914619570
         O           -2.826535585593     0.033250292621    -0.807084223284    15.994914619570
         O           -3.258793585593    -0.723382707379     1.622117776716    15.994914619570
         O           -2.118665585593    -2.343744707379    -0.099221223284    15.994914619570
         C            0.118489414407     0.029908292621     0.016765776716    12.000000000000
         C            0.953619414407    -1.244305707379    -0.075278223284    12.000000000000
         C            0.891842914407     1.205010992621     0.554384976716    12.000000000000
         C            2.259987414407    -1.014407707379    -0.817590223284    12.000000000000
         C            2.177402414407     1.396371292621    -0.227594223284    12.000000000000
         C            3.026169414407     0.148604292621    -0.209875223284    12.000000000000
         C           -3.123885585593     1.431497292621    -0.488439223284    12.000000000000
         C           -3.535989585593     2.085064292621    -1.783672223284    12.000000000000
         H           -0.282764585593     0.298700292621    -0.969791223284     1.007825032230
         H            0.370596414407    -2.029464707379    -0.571585223284     1.007825032230
         H            1.157447414407     0.997776292621     1.612602776716     1.007825032230
         H            2.061261414407    -0.788760707379    -1.872309223284     1.007825032230
         H            1.907963714407     1.635593492621    -1.270901723284     1.007825032230
         H            3.296182414407    -0.094632707379     0.828092776716     1.007825032230
         H            0.522102414407    -1.888132707379     1.711956776716     1.007825032230
         H            0.665867414407     3.109210292621     0.683630776716     1.007825032230
         H            2.973870414407    -2.547474707379     0.095100776716     1.007825032230
         H            3.721756414407     2.549085292621    -0.058422223284     1.007825032230
         H            4.640054414407    -0.423934707379    -1.096640223284     1.007825032230
         H           -3.808067585593    -1.522438707379     1.735174776716     1.007825032230
         H           -3.930218585593     1.445440292621     0.249832776716     1.007825032230
         H           -2.229434585593     1.892779292621    -0.058649223284     1.007825032230
         H           -3.800193585593     3.130781292621    -1.602224223284     1.007825032230
         H           -2.716868585593     2.053222292621    -2.504428223284     1.007825032230
         H           -4.400616585593     1.574222292621    -2.212277223284     1.007825032230

  Running in c1 symmetry.

  Rotational constants: A =      0.01975  B =      0.00843  C =      0.00687 [cm^-1]
  Rotational constants: A =    592.11763  B =    252.58699  C =    205.91576 [MHz]
  Nuclear repulsion = 1772.596245689713669

  Charge       = 0
  Multiplicity = 1
  Electrons    = 152
  Nalpha       = 76
  Nbeta        = 76

  ==> Algorithm <==

  SCF Algorithm Type is DF.
  DIIS enabled.
  MOM disabled.
  Fractional occupation disabled.
  Guess Type is SAD.
  Energy threshold   = 1.00e-10
  Density threshold  = 1.00e-10
  Integral threshold = 0.00e+00

  ==> Primary Basis <==

  Basis Set: AUG-CC-PVTZ
    Blend: AUG-CC-PVTZ
    Number of shells: 407
    Number of basis function: 1223
    Number of Cartesian functions: 1419
    Spherical Harmonics?: true
    Max angular momentum: 3

   => Loading Basis Set <=

    Name: (AUG-CC-PVTZ AUX)
    Role: JKFIT
    Keyword: DF_BASIS_SCF
    atoms 1     entry P          line   644 file /home/xy3866/psi4conda/share/psi4/basis/aug-cc-pvtz-jkfit.gbs 
    atoms 2-10  entry O          line   286 file /home/xy3866/psi4conda/share/psi4/basis/aug-cc-pvtz-jkfit.gbs 
    atoms 11-18 entry C          line   162 file /home/xy3866/psi4conda/share/psi4/basis/aug-cc-pvtz-jkfit.gbs 
    atoms 19-35 entry H          line    70 file /home/xy3866/psi4conda/share/psi4/basis/aug-cc-pvtz-jkfit.gbs 

  ==> Pre-Iterations <==

   -------------------------------------------------------
    Irrep   Nso     Nmo     Nalpha   Nbeta   Ndocc  Nsocc
   -------------------------------------------------------
     A       1223    1223       0       0       0       0
   -------------------------------------------------------
    Total    1223    1223      76      76      76       0
   -------------------------------------------------------

  ==> Integral Setup <==

  ==> DiskDFJK: Density-Fitted J/K Matrices <==

    J tasked:                  Yes
    K tasked:                  Yes
    wK tasked:                  No
    OpenMP threads:              8
    Integrals threads:           8
    Memory [MiB]:            22888
    Algorithm:                Core
    Integral Cache:           NONE
    Schwarz Cutoff:          1E-12
    Fitting Condition:       1E-10

   => Auxiliary Basis Set <=

  Basis Set: (AUG-CC-PVTZ AUX)
    Blend: AUG-CC-PVTZ-JKFIT
    Number of shells: 790
    Number of basis function: 2696
    Number of Cartesian functions: 3342
    Spherical Harmonics?: true
    Max angular momentum: 4

  Minimum eigenvalue in the overlap matrix is 7.2057519106E-07.
  Using Symmetric Orthogonalization.

  SCF Guess: Superposition of Atomic Densities via on-the-fly atomic UHF.

  ==> Iterations <==

                           Total Energy        Delta E     RMS |[F,P]|

   @DF-RHF iter SAD: -1327.18175757903373   -1.32718e+03   0.00000e+00 
   @DF-RHF iter   1: -1327.25221486711939   -7.04573e-02   9.36685e-04 DIIS
   @DF-RHF iter   2: -1327.71014766810413   -4.57933e-01   5.38065e-04 DIIS
   @DF-RHF iter   3: -1327.85320518979984   -1.43058e-01   9.06960e-05 DIIS
   @DF-RHF iter   4: -1327.86031703591152   -7.11185e-03   3.49442e-05 DIIS
   @DF-RHF iter   5: -1327.86119504506178   -8.78009e-04   8.03181e-06 DIIS
   @DF-RHF iter   6: -1327.86125396482794   -5.89198e-05   2.53917e-06 DIIS
   @DF-RHF iter   7: -1327.86126113836008   -7.17353e-06   8.30634e-07 DIIS
   @DF-RHF iter   8: -1327.86126199100272   -8.52643e-07   2.52387e-07 DIIS
   @DF-RHF iter   9: -1327.86126207707343   -8.60707e-08   8.09356e-08 DIIS
   @DF-RHF iter  10: -1327.86126208538963   -8.31619e-09   2.52566e-08 DIIS
   @DF-RHF iter  11: -1327.86126208607106   -6.81439e-10   7.72340e-09 DIIS
   @DF-RHF iter  12: -1327.86126208615519   -8.41283e-11   2.29263e-09 DIIS
   @DF-RHF iter  13: -1327.86126208615292    2.27374e-12   7.31323e-10 DIIS
   @DF-RHF iter  14: -1327.86126208616542   -1.25056e-11   3.03314e-10 DIIS
   @DF-RHF iter  15: -1327.86126208614519    2.02363e-11   9.70842e-11 DIIS
  Energy and wave function converged.


  ==> Post-Iterations <==

    Orbital Energies [Eh]
    ---------------------

    Doubly Occupied:                                                      

       1A    -80.117011     2A    -20.614784     3A    -20.607132  
       4A    -20.599001     5A    -20.583040     6A    -20.577079  
       7A    -20.574613     8A    -20.574092     9A    -20.574082  
      10A    -20.523480    11A    -11.320602    12A    -11.303757  
      13A    -11.299516    14A    -11.299367    15A    -11.298871  
      16A    -11.296679    17A    -11.291579    18A    -11.229966  
      19A     -7.632460    20A     -5.530965    21A     -5.530594  
      22A     -5.529391    23A     -1.460388    24A     -1.411089  
      25A     -1.394843    26A     -1.393727    27A     -1.386953  
      28A     -1.373306    29A     -1.364731    30A     -1.354150  
      31A     -1.303882    32A     -1.119421    33A     -1.040571  
      34A     -1.012450    35A     -1.003469    36A     -0.880538  
      37A     -0.865100    38A     -0.858820    39A     -0.822643  
      40A     -0.810005    41A     -0.752191    42A     -0.745174  
      43A     -0.731546    44A     -0.728814    45A     -0.708087  
      46A     -0.687672    47A     -0.678131    48A     -0.673772  
      49A     -0.662479    50A     -0.661074    51A     -0.643428  
      52A     -0.635416    53A     -0.627407    54A     -0.615532  
      55A     -0.603455    56A     -0.598825    57A     -0.582307  
      58A     -0.575616    59A     -0.571173    60A     -0.559575  
      61A     -0.556760    62A     -0.548639    63A     -0.541251  
      64A     -0.536785    65A     -0.529979    66A     -0.521874  
      67A     -0.513092    68A     -0.504157    69A     -0.497066  
      70A     -0.484444    71A     -0.479956    72A     -0.476687  
      73A     -0.461541    74A     -0.456313    75A     -0.449047  
      76A     -0.436393  

    Virtual:                                                              

      77A      0.024380    78A      0.029508    79A      0.032245  
      80A      0.035410    81A      0.041469    82A      0.043236  
      83A      0.046662    84A      0.051659    85A      0.054288  
      86A      0.059682    87A      0.062246    88A      0.064280  
      89A      0.072336    90A      0.074137    91A      0.075977  
      92A      0.087438    93A      0.090529    94A      0.093347  
      95A      0.103725    96A      0.105286    97A      0.111653  
      98A      0.115572    99A      0.117615   100A      0.120282  
     101A      0.121210   102A      0.125932   103A      0.127599  
     104A      0.130852   105A      0.133788   106A      0.140630  
     107A      0.143225   108A      0.144719   109A      0.148755  
     110A      0.150407   111A      0.153705   112A      0.154436  
     113A      0.157745   114A      0.161322   115A      0.164420  
     116A      0.168788   117A      0.171434   118A      0.173790  
     119A      0.176994   120A      0.178307   121A      0.181687  
     122A      0.190116   123A      0.193182   124A      0.196724  
     125A      0.207186   126A      0.209850   127A      0.213903  
     128A      0.219748   129A      0.220915   130A      0.224110  
     131A      0.229880   132A      0.233667   133A      0.235206  
     134A      0.238198   135A      0.242308   136A      0.244107  
     137A      0.245205   138A      0.251040   139A      0.255275  
     140A      0.256909   141A      0.258465   142A      0.260805  
     143A      0.263128   144A      0.267346   145A      0.270244  
     146A      0.271907   147A      0.278006   148A      0.278612  
     149A      0.281187   150A      0.285875   151A      0.289762  
     152A      0.292902   153A      0.295146   154A      0.298009  
     155A      0.300569   156A      0.300707   157A      0.309709  
     158A      0.311524   159A      0.311839   160A      0.313512  
     161A      0.318826   162A      0.321988   163A      0.324019  
     164A      0.328831   165A      0.329968   166A      0.335103  
     167A      0.336546   168A      0.340116   169A      0.342671  
     170A      0.348245   171A      0.349863   172A      0.354833  
     173A      0.357406   174A      0.359194   175A      0.361324  
     176A      0.362565   177A      0.367856   178A      0.373278  
     179A      0.375500   180A      0.378452   181A      0.384151  
     182A      0.385078   183A      0.388857   184A      0.392541  
     185A      0.392805   186A      0.393671   187A      0.397220  
     188A      0.399199   189A      0.403267   190A      0.406219  
     191A      0.408369   192A      0.413589   193A      0.420533  
     194A      0.423432   195A      0.426830   196A      0.429824  
     197A      0.430483   198A      0.434031   199A      0.439594  
     200A      0.439765   201A      0.444121   202A      0.447181  
     203A      0.448349   204A      0.452842   205A      0.454371  
     206A      0.455587   207A      0.460853   208A      0.462077  
     209A      0.467237   210A      0.470710   211A      0.472553  
     212A      0.473513   213A      0.476278   214A      0.477449  
     215A      0.483382   216A      0.486445   217A      0.489222  
     218A      0.494931   219A      0.496098   220A      0.498762  
     221A      0.500227   222A      0.503688   223A      0.507366  
     224A      0.511299   225A      0.513781   226A      0.520605  
     227A      0.522656   228A      0.524055   229A      0.528506  
     230A      0.530121   231A      0.531995   232A      0.534661  
     233A      0.542353   234A      0.546011   235A      0.547563  
     236A      0.549340   237A      0.553143   238A      0.555459  
     239A      0.558185   240A      0.560344   241A      0.562132  
     242A      0.567889   243A      0.568407   244A      0.571217  
     245A      0.574277   246A      0.579018   247A      0.580844  
     248A      0.586162   249A      0.589753   250A      0.591196  
     251A      0.596997   252A      0.598139   253A      0.603002  
     254A      0.607547   255A      0.609295   256A      0.611267  
     257A      0.615222   258A      0.617814   259A      0.625984  
     260A      0.628115   261A      0.632081   262A      0.633793  
     263A      0.636127   264A      0.642552   265A      0.647052  
     266A      0.649183   267A      0.652758   268A      0.657662  
     269A      0.660986   270A      0.665934   271A      0.670216  
     272A      0.673721   273A      0.675730   274A      0.678129  
     275A      0.686192   276A      0.686846   277A      0.693056  
     278A      0.696231   279A      0.704803   280A      0.708836  
     281A      0.709486   282A      0.718282   283A      0.723958  
     284A      0.727595   285A      0.729056   286A      0.737579  
     287A      0.739083   288A      0.743002   289A      0.746334  
     290A      0.751773   291A      0.757340   292A      0.757927  
     293A      0.771489   294A      0.775909   295A      0.779107  
     296A      0.782266   297A      0.787740   298A      0.794491  
     299A      0.801646   300A      0.805379   301A      0.808675  
     302A      0.811913   303A      0.819591   304A      0.823383  
     305A      0.825256   306A      0.826923   307A      0.838229  
     308A      0.841208   309A      0.845751   310A      0.846775  
     311A      0.850278   312A      0.854236   313A      0.856417  
     314A      0.863042   315A      0.868776   316A      0.878383  
     317A      0.878671   318A      0.882348   319A      0.887410  
     320A      0.890990   321A      0.898128   322A      0.904080  
     323A      0.905525   324A      0.907817   325A      0.909401  
     326A      0.913097   327A      0.917825   328A      0.920579  
     329A      0.923070   330A      0.929369   331A      0.934942  
     332A      0.938678   333A      0.939766   334A      0.943660  
     335A      0.945777   336A      0.950265   337A      0.952136  
     338A      0.957224   339A      0.960578   340A      0.966793  
     341A      0.968288   342A      0.972920   343A      0.977154  
     344A      0.982211   345A      0.985245   346A      0.991736  
     347A      0.994737   348A      0.998943   349A      0.999919  
     350A      1.003420   351A      1.005260   352A      1.009067  
     353A      1.014023   354A      1.017659   355A      1.020076  
     356A      1.023585   357A      1.030647   358A      1.033085  
     359A      1.041206   360A      1.042921   361A      1.048515  
     362A      1.053257   363A      1.054327   364A      1.058747  
     365A      1.061847   366A      1.062155   367A      1.068979  
     368A      1.073982   369A      1.075218   370A      1.078574  
     371A      1.082511   372A      1.087655   373A      1.088592  
     374A      1.092169   375A      1.097720   376A      1.099740  
     377A      1.101942   378A      1.107592   379A      1.110209  
     380A      1.112273   381A      1.113998   382A      1.118946  
     383A      1.126994   384A      1.128031   385A      1.132520  
     386A      1.135889   387A      1.140442   388A      1.142879  
     389A      1.144829   390A      1.146122   391A      1.154123  
     392A      1.159263   393A      1.163371   394A      1.165652  
     395A      1.171797   396A      1.172942   397A      1.177885  
     398A      1.180167   399A      1.181356   400A      1.186596  
     401A      1.189440   402A      1.194429   403A      1.197140  
     404A      1.201838   405A      1.207036   406A      1.211007  
     407A      1.213187   408A      1.214835   409A      1.216830  
     410A      1.223922   411A      1.226765   412A      1.229392  
     413A      1.231857   414A      1.236791   415A      1.241673  
     416A      1.245614   417A      1.249159   418A      1.253027  
     419A      1.257621   420A      1.262693   421A      1.268717  
     422A      1.269802   423A      1.276565   424A      1.280848  
     425A      1.284878   426A      1.286170   427A      1.294839  
     428A      1.295393   429A      1.302715   430A      1.306700  
     431A      1.312431   432A      1.313862   433A      1.314351  
     434A      1.324183   435A      1.327253   436A      1.334828  
     437A      1.339370   438A      1.347329   439A      1.350382  
     440A      1.360442   441A      1.366525   442A      1.368598  
     443A      1.373990   444A      1.377595   445A      1.380236  
     446A      1.387974   447A      1.393373   448A      1.393730  
     449A      1.396717   450A      1.400713   451A      1.410630  
     452A      1.412690   453A      1.422605   454A      1.424175  
     455A      1.430217   456A      1.433402   457A      1.439295  
     458A      1.446735   459A      1.449184   460A      1.455559  
     461A      1.465315   462A      1.468587   463A      1.470849  
     464A      1.472645   465A      1.478796   466A      1.482572  
     467A      1.492220   468A      1.500912   469A      1.504755  
     470A      1.507349   471A      1.514239   472A      1.518278  
     473A      1.522094   474A      1.526133   475A      1.529413  
     476A      1.534408   477A      1.539258   478A      1.541438  
     479A      1.549182   480A      1.552546   481A      1.560321  
     482A      1.567076   483A      1.570641   484A      1.575725  
     485A      1.576563   486A      1.580479   487A      1.588290  
     488A      1.590776   489A      1.602453   490A      1.607623  
     491A      1.616633   492A      1.617968   493A      1.622058  
     494A      1.623157   495A      1.628912   496A      1.634021  
     497A      1.635682   498A      1.641649   499A      1.645374  
     500A      1.649941   501A      1.659698   502A      1.662757  
     503A      1.670026   504A      1.674477   505A      1.678699  
     506A      1.682968   507A      1.684417   508A      1.687884  
     509A      1.694902   510A      1.695889   511A      1.705185  
     512A      1.712120   513A      1.715049   514A      1.722621  
     515A      1.724700   516A      1.728197   517A      1.729586  
     518A      1.731161   519A      1.735897   520A      1.741194  
     521A      1.746720   522A      1.751145   523A      1.755328  
     524A      1.755965   525A      1.762382   526A      1.771549  
     527A      1.775493   528A      1.780106   529A      1.786166  
     530A      1.790149   531A      1.801412   532A      1.803322  
     533A      1.806738   534A      1.815430   535A      1.815877  
     536A      1.819518   537A      1.829596   538A      1.832682  
     539A      1.838044   540A      1.839456   541A      1.845803  
     542A      1.850522   543A      1.856754   544A      1.864598  
     545A      1.867625   546A      1.869693   547A      1.874479  
     548A      1.877041   549A      1.880167   550A      1.883935  
     551A      1.886796   552A      1.895854   553A      1.900919  
     554A      1.902780   555A      1.911272   556A      1.915099  
     557A      1.918221   558A      1.923305   559A      1.930596  
     560A      1.932199   561A      1.938222   562A      1.941385  
     563A      1.947491   564A      1.950743   565A      1.960605  
     566A      1.965137   567A      1.974038   568A      1.977029  
     569A      1.980076   570A      1.980386   571A      1.986091  
     572A      1.995769   573A      1.998849   574A      2.003043  
     575A      2.007842   576A      2.008938   577A      2.016427  
     578A      2.020986   579A      2.024153   580A      2.029390  
     581A      2.033770   582A      2.039216   583A      2.044010  
     584A      2.053773   585A      2.058363   586A      2.065909  
     587A      2.070511   588A      2.072313   589A      2.083084  
     590A      2.085929   591A      2.089535   592A      2.096557  
     593A      2.101964   594A      2.112181   595A      2.112926  
     596A      2.120399   597A      2.121438   598A      2.126641  
     599A      2.130643   600A      2.141365   601A      2.147204  
     602A      2.158410   603A      2.163105   604A      2.163930  
     605A      2.169126   606A      2.170466   607A      2.179467  
     608A      2.188102   609A      2.195634   610A      2.197697  
     611A      2.201622   612A      2.209791   613A      2.221255  
     614A      2.224000   615A      2.229158   616A      2.240657  
     617A      2.243775   618A      2.247332   619A      2.253132  
     620A      2.258013   621A      2.261018   622A      2.265555  
     623A      2.268540   624A      2.277046   625A      2.280098  
     626A      2.284258   627A      2.297307   628A      2.304508  
     629A      2.307197   630A      2.314740   631A      2.320743  
     632A      2.323480   633A      2.330539   634A      2.336151  
     635A      2.343404   636A      2.349365   637A      2.358633  
     638A      2.363499   639A      2.381560   640A      2.387896  
     641A      2.389474   642A      2.405559   643A      2.414046  
     644A      2.419295   645A      2.429709   646A      2.435043  
     647A      2.440252   648A      2.444027   649A      2.444944  
     650A      2.448838   651A      2.460844   652A      2.469391  
     653A      2.474987   654A      2.483278   655A      2.491370  
     656A      2.505302   657A      2.507947   658A      2.518340  
     659A      2.522864   660A      2.529403   661A      2.534765  
     662A      2.541488   663A      2.547795   664A      2.555647  
     665A      2.568167   666A      2.578748   667A      2.586275  
     668A      2.592310   669A      2.597603   670A      2.599942  
     671A      2.606782   672A      2.618079   673A      2.622947  
     674A      2.636143   675A      2.642607   676A      2.647464  
     677A      2.649386   678A      2.661050   679A      2.666571  
     680A      2.673658   681A      2.683172   682A      2.689742  
     683A      2.691886   684A      2.694168   685A      2.707007  
     686A      2.711627   687A      2.718491   688A      2.726201  
     689A      2.730852   690A      2.746743   691A      2.749784  
     692A      2.757931   693A      2.766798   694A      2.779546  
     695A      2.782410   696A      2.791717   697A      2.797381  
     698A      2.802113   699A      2.807456   700A      2.814810  
     701A      2.819314   702A      2.827808   703A      2.837828  
     704A      2.852772   705A      2.862085   706A      2.870585  
     707A      2.874970   708A      2.883658   709A      2.888659  
     710A      2.895752   711A      2.904366   712A      2.917844  
     713A      2.921595   714A      2.924278   715A      2.941206  
     716A      2.945760   717A      2.958196   718A      2.965518  
     719A      2.969587   720A      2.977130   721A      2.981744  
     722A      2.990225   723A      2.995972   724A      3.000890  
     725A      3.007808   726A      3.010344   727A      3.024284  
     728A      3.030902   729A      3.050120   730A      3.054845  
     731A      3.058350   732A      3.062665   733A      3.075956  
     734A      3.083087   735A      3.096378   736A      3.109173  
     737A      3.111050   738A      3.119716   739A      3.125389  
     740A      3.131658   741A      3.138945   742A      3.144497  
     743A      3.153708   744A      3.160677   745A      3.169143  
     746A      3.173871   747A      3.192241   748A      3.197247  
     749A      3.198882   750A      3.207879   751A      3.213928  
     752A      3.221536   753A      3.228330   754A      3.238216  
     755A      3.251984   756A      3.260132   757A      3.265758  
     758A      3.273443   759A      3.281373   760A      3.288903  
     761A      3.291571   762A      3.301607   763A      3.308818  
     764A      3.312260   765A      3.325151   766A      3.330561  
     767A      3.335686   768A      3.348036   769A      3.354409  
     770A      3.359666   771A      3.365410   772A      3.374940  
     773A      3.376277   774A      3.386648   775A      3.395956  
     776A      3.409345   777A      3.415261   778A      3.428264  
     779A      3.432008   780A      3.439557   781A      3.452010  
     782A      3.454532   783A      3.477301   784A      3.481422  
     785A      3.493173   786A      3.502655   787A      3.511148  
     788A      3.515156   789A      3.530148   790A      3.540289  
     791A      3.555638   792A      3.560840   793A      3.585781  
     794A      3.593501   795A      3.600651   796A      3.617903  
     797A      3.623839   798A      3.645186   799A      3.652006  
     800A      3.653968   801A      3.673161   802A      3.681127  
     803A      3.687732   804A      3.701690   805A      3.704117  
     806A      3.721408   807A      3.729178   808A      3.733023  
     809A      3.743317   810A      3.744031   811A      3.760308  
     812A      3.766515   813A      3.780427   814A      3.786790  
     815A      3.797205   816A      3.815406   817A      3.816393  
     818A      3.832842   819A      3.841351   820A      3.850630  
     821A      3.852290   822A      3.861567   823A      3.872913  
     824A      3.876125   825A      3.882587   826A      3.902032  
     827A      3.907976   828A      3.917015   829A      3.926589  
     830A      3.928496   831A      3.949842   832A      3.954900  
     833A      3.965959   834A      3.971677   835A      3.977976  
     836A      3.984146   837A      3.993940   838A      4.004438  
     839A      4.007598   840A      4.012397   841A      4.026459  
     842A      4.033673   843A      4.045537   844A      4.053985  
     845A      4.062437   846A      4.070485   847A      4.075400  
     848A      4.081656   849A      4.088565   850A      4.100984  
     851A      4.105060   852A      4.106105   853A      4.117403  
     854A      4.130215   855A      4.134677   856A      4.143757  
     857A      4.147097   858A      4.164256   859A      4.167862  
     860A      4.174722   861A      4.181444   862A      4.186791  
     863A      4.190250   864A      4.197522   865A      4.205667  
     866A      4.210081   867A      4.223186   868A      4.227225  
     869A      4.239703   870A      4.244972   871A      4.249484  
     872A      4.256140   873A      4.264481   874A      4.275230  
     875A      4.278553   876A      4.290438   877A      4.293861  
     878A      4.304748   879A      4.308494   880A      4.311448  
     881A      4.323639   882A      4.336971   883A      4.343300  
     884A      4.345408   885A      4.365249   886A      4.374683  
     887A      4.376129   888A      4.383153   889A      4.386621  
     890A      4.398931   891A      4.410402   892A      4.420258  
     893A      4.422761   894A      4.436270   895A      4.446787  
     896A      4.449576   897A      4.456581   898A      4.463437  
     899A      4.467567   900A      4.475577   901A      4.490938  
     902A      4.500145   903A      4.502466   904A      4.510582  
     905A      4.521366   906A      4.537294   907A      4.539985  
     908A      4.548252   909A      4.559214   910A      4.571130  
     911A      4.578975   912A      4.584944   913A      4.590600  
     914A      4.595871   915A      4.601382   916A      4.606759  
     917A      4.620713   918A      4.633206   919A      4.639909  
     920A      4.651749   921A      4.658896   922A      4.665403  
     923A      4.669014   924A      4.683628   925A      4.691775  
     926A      4.696923   927A      4.711886   928A      4.719566  
     929A      4.730254   930A      4.742876   931A      4.750604  
     932A      4.752687   933A      4.772095   934A      4.776821  
     935A      4.788068   936A      4.797525   937A      4.803208  
     938A      4.815098   939A      4.824296   940A      4.834214  
     941A      4.841207   942A      4.843488   943A      4.849288  
     944A      4.858765   945A      4.871837   946A      4.877301  
     947A      4.891473   948A      4.894050   949A      4.897821  
     950A      4.907129   951A      4.924072   952A      4.927636  
     953A      4.934448   954A      4.951396   955A      4.965069  
     956A      4.977196   957A      4.988256   958A      4.989202  
     959A      4.996558   960A      5.009981   961A      5.021407  
     962A      5.037391   963A      5.043903   964A      5.053344  
     965A      5.055972   966A      5.069690   967A      5.077878  
     968A      5.089021   969A      5.090294   970A      5.096061  
     971A      5.106784   972A      5.113007   973A      5.122431  
     974A      5.126867   975A      5.130242   976A      5.142715  
     977A      5.154052   978A      5.159925   979A      5.168815  
     980A      5.177392   981A      5.186451   982A      5.201706  
     983A      5.213816   984A      5.214619   985A      5.230123  
     986A      5.240136   987A      5.242526   988A      5.260177  
     989A      5.266263   990A      5.276506   991A      5.281097  
     992A      5.285714   993A      5.300492   994A      5.309567  
     995A      5.315605   996A      5.324064   997A      5.330049  
     998A      5.352617   999A      5.354767  1000A      5.362264  
    1001A      5.368080  1002A      5.369636  1003A      5.383805  
    1004A      5.385734  1005A      5.397894  1006A      5.403037  
    1007A      5.422186  1008A      5.433562  1009A      5.438482  
    1010A      5.457414  1011A      5.458091  1012A      5.466266  
    1013A      5.470866  1014A      5.480622  1015A      5.490941  
    1016A      5.502342  1017A      5.511960  1018A      5.517245  
    1019A      5.536835  1020A      5.543988  1021A      5.550703  
    1022A      5.554403  1023A      5.567379  1024A      5.577861  
    1025A      5.593531  1026A      5.598466  1027A      5.609186  
    1028A      5.613290  1029A      5.621538  1030A      5.631815  
    1031A      5.638446  1032A      5.655225  1033A      5.660229  
    1034A      5.680883  1035A      5.684449  1036A      5.696766  
    1037A      5.718149  1038A      5.723607  1039A      5.737708  
    1040A      5.742868  1041A      5.756312  1042A      5.770625  
    1043A      5.779553  1044A      5.784516  1045A      5.805471  
    1046A      5.814815  1047A      5.817685  1048A      5.822904  
    1049A      5.845713  1050A      5.848577  1051A      5.878249  
    1052A      5.890237  1053A      5.908378  1054A      5.915654  
    1055A      5.933580  1056A      5.960344  1057A      5.971665  
    1058A      6.018721  1059A      6.033859  1060A      6.042476  
    1061A      6.067078  1062A      6.080121  1063A      6.091548  
    1064A      6.103652  1065A      6.132103  1066A      6.159033  
    1067A      6.176320  1068A      6.197115  1069A      6.207552  
    1070A      6.214720  1071A      6.237856  1072A      6.280434  
    1073A      6.302864  1074A      6.335109  1075A      6.360248  
    1076A      6.375734  1077A      6.393097  1078A      6.413756  
    1079A      6.456206  1080A      6.477557  1081A      6.499295  
    1082A      6.528050  1083A      6.540826  1084A      6.723251  
    1085A      6.730616  1086A      6.764924  1087A      6.770402  
    1088A      6.774301  1089A      6.787535  1090A      6.792359  
    1091A      6.807332  1092A      6.820678  1093A      6.837807  
    1094A      6.855875  1095A      6.866655  1096A      6.875565  
    1097A      6.885292  1098A      6.893470  1099A      6.899242  
    1100A      6.906785  1101A      6.928367  1102A      6.933302  
    1103A      6.950376  1104A      6.959096  1105A      6.965473  
    1106A      6.983652  1107A      6.991419  1108A      7.008109  
    1109A      7.019013  1110A      7.029965  1111A      7.041179  
    1112A      7.044982  1113A      7.055850  1114A      7.061150  
    1115A      7.068594  1116A      7.083523  1117A      7.096995  
    1118A      7.106148  1119A      7.124960  1120A      7.130381  
    1121A      7.141908  1122A      7.151630  1123A      7.169221  
    1124A      7.175885  1125A      7.182912  1126A      7.187969  
    1127A      7.192534  1128A      7.197242  1129A      7.212578  
    1130A      7.233197  1131A      7.243605  1132A      7.287824  
    1133A      7.299053  1134A      7.308465  1135A      7.319497  
    1136A      7.345131  1137A      7.348230  1138A      7.356669  
    1139A      7.372201  1140A      7.374009  1141A      7.383266  
    1142A      7.396625  1143A      7.410994  1144A      7.415912  
    1145A      7.432210  1146A      7.434713  1147A      7.442363  
    1148A      7.457874  1149A      7.469672  1150A      7.478935  
    1151A      7.493505  1152A      7.509663  1153A      7.523170  
    1154A      7.546614  1155A      7.551899  1156A      7.565231  
    1157A      7.573852  1158A      7.594296  1159A      7.594761  
    1160A      7.620281  1161A      7.629444  1162A      7.639682  
    1163A      7.657073  1164A      7.664775  1165A      7.680725  
    1166A      7.701651  1167A      7.714948  1168A      7.747830  
    1169A      7.753176  1170A      7.773060  1171A      7.777780  
    1172A      7.800600  1173A      7.833286  1174A      7.848151  
    1175A      7.848881  1176A      7.866179  1177A      7.884701  
    1178A      7.891789  1179A      7.913735  1180A      7.931156  
    1181A      7.935292  1182A      7.947695  1183A      7.950505  
    1184A      7.980681  1185A      8.014883  1186A      8.098735  
    1187A      8.128435  1188A      8.130828  1189A      8.170074  
    1190A      8.180329  1191A      8.195003  1192A      8.208784  
    1193A      8.259986  1194A      8.301919  1195A      8.340447  
    1196A      8.359848  1197A      8.370841  1198A      8.387703  
    1199A      8.405422  1200A      8.421072  1201A      8.696630  
    1202A      8.714321  1203A      8.750882  1204A      8.775232  
    1205A      8.799052  1206A     11.999030  1207A     13.696201  
    1208A     15.247263  1209A     15.866544  1210A     16.836016  
    1211A     16.896468  1212A     17.143794  1213A     17.240025  
    1214A     17.549039  1215A     17.723159  1216A     18.186387  
    1217A     18.895092  1218A     19.161616  1219A     19.564604  
    1220A     19.696862  1221A     19.723004  1222A     19.815458  
    1223A     20.549028  

    Final Occupation by Irrep:
              A 
    DOCC [    76 ]

  @DF-RHF Final Energy: -1327.86126208614519

   => Energetics <=

    Nuclear Repulsion Energy =           1772.5962456897136690
    One-Electron Energy =               -5357.3154011983424425
    Two-Electron Energy =                2256.8578934224838122
    Total Energy =                      -1327.8612620861449614

Computation Completed

*** tstop() called on node92.bme.utexas.edu at Mon Nov  9 20:10:30 2020
Module time:
	user time   =    2828.15 seconds =      47.14 minutes
	system time =      18.95 seconds =       0.32 minutes
	total time  =        384 seconds =       6.40 minutes
Total time:
	user time   =    2828.15 seconds =      47.14 minutes
	system time =      18.95 seconds =       0.32 minutes
	total time  =        384 seconds =       6.40 minutes
   => Loading Basis Set <=

    Name: (AUG-CC-PVTZ AUX)
    Role: RIFIT
    Keyword: DF_BASIS_MP2
    atoms 1     entry P          line   590 file /home/xy3866/psi4conda/share/psi4/basis/aug-cc-pvtz-ri.gbs 
    atoms 2-10  entry O          line   264 file /home/xy3866/psi4conda/share/psi4/basis/aug-cc-pvtz-ri.gbs 
    atoms 11-18 entry C          line   148 file /home/xy3866/psi4conda/share/psi4/basis/aug-cc-pvtz-ri.gbs 
    atoms 19-35 entry H          line    30 file /home/xy3866/psi4conda/share/psi4/basis/aug-cc-pvtz-ri.gbs 


*** tstart() called on node92.bme.utexas.edu
*** at Mon Nov  9 20:10:31 2020


  //>>>>>>>>>>>>>>>>>>>>>>>>>>>>>>>>>>>//
  //               DFMP2               //
  //<<<<<<<<<<<<<<<<<<<<<<<<<<<<<<<<<<<//

	 --------------------------------------------------------
	                          DF-MP2                         
	      2nd-Order Density-Fitted Moller-Plesset Theory     
	              RMP2 Wavefunction,   8 Threads             
	                                                         
	        Rob Parrish, Justin Turney, Andy Simmonett,      
	           Ed Hohenstein, and C. David Sherrill          
	 --------------------------------------------------------

   => Auxiliary Basis Set <=

  Basis Set: (AUG-CC-PVTZ AUX)
    Blend: AUG-CC-PVTZ-RI
    Number of shells: 751
    Number of basis function: 2731
    Number of Cartesian functions: 3438
    Spherical Harmonics?: true
    Max angular momentum: 4

	 --------------------------------------------------------
	                 NBF =  1223, NAUX =  2731
	 --------------------------------------------------------
	   CLASS    FOCC     OCC    AOCC    AVIR     VIR    FVIR
	   PAIRS       0      76      76    1147    1147       0
	 --------------------------------------------------------


         ------------------------------------------------------------
                                     CPHF                           
                                  Rob Parrish                       
         ------------------------------------------------------------

  ==> Geometry <==

    Molecular point group: c1
    Full point group: C1

    Geometry (in Angstrom), charge = 0, multiplicity = 1:

       Center              X                  Y                   Z               Mass       
    ------------   -----------------  -----------------  -----------------  -----------------
         P           -2.289768585593    -0.940143707379     0.345124776716    30.973761998420
         O           -0.981825585593    -0.201662707379     0.938735776716    15.994914619570
         O            1.342577414407    -1.675583707379     1.231297776716    15.994914619570
         O            0.079032414407     2.359503292621     0.462614776716    15.994914619570
         O            3.068842414407    -2.187172707379    -0.808143223284    15.994914619570
         O            2.847662414407     2.503012292621     0.371981776716    15.994914619570
         O            4.196015414407     0.435296292621    -0.972427223284    15.994914619570
         O           -2.826535585593     0.033250292621    -0.807084223284    15.994914619570
         O           -3.258793585593    -0.723382707379     1.622117776716    15.994914619570
         O           -2.118665585593    -2.343744707379    -0.099221223284    15.994914619570
         C            0.118489414407     0.029908292621     0.016765776716    12.000000000000
         C            0.953619414407    -1.244305707379    -0.075278223284    12.000000000000
         C            0.891842914407     1.205010992621     0.554384976716    12.000000000000
         C            2.259987414407    -1.014407707379    -0.817590223284    12.000000000000
         C            2.177402414407     1.396371292621    -0.227594223284    12.000000000000
         C            3.026169414407     0.148604292621    -0.209875223284    12.000000000000
         C           -3.123885585593     1.431497292621    -0.488439223284    12.000000000000
         C           -3.535989585593     2.085064292621    -1.783672223284    12.000000000000
         H           -0.282764585593     0.298700292621    -0.969791223284     1.007825032230
         H            0.370596414407    -2.029464707379    -0.571585223284     1.007825032230
         H            1.157447414407     0.997776292621     1.612602776716     1.007825032230
         H            2.061261414407    -0.788760707379    -1.872309223284     1.007825032230
         H            1.907963714407     1.635593492621    -1.270901723284     1.007825032230
         H            3.296182414407    -0.094632707379     0.828092776716     1.007825032230
         H            0.522102414407    -1.888132707379     1.711956776716     1.007825032230
         H            0.665867414407     3.109210292621     0.683630776716     1.007825032230
         H            2.973870414407    -2.547474707379     0.095100776716     1.007825032230
         H            3.721756414407     2.549085292621    -0.058422223284     1.007825032230
         H            4.640054414407    -0.423934707379    -1.096640223284     1.007825032230
         H           -3.808067585593    -1.522438707379     1.735174776716     1.007825032230
         H           -3.930218585593     1.445440292621     0.249832776716     1.007825032230
         H           -2.229434585593     1.892779292621    -0.058649223284     1.007825032230
         H           -3.800193585593     3.130781292621    -1.602224223284     1.007825032230
         H           -2.716868585593     2.053222292621    -2.504428223284     1.007825032230
         H           -4.400616585593     1.574222292621    -2.212277223284     1.007825032230

  Nuclear repulsion = 1772.596245689713669
  Reference energy  = -1327.861262086145189

  ==> Basis Set <==

  Basis Set: AUG-CC-PVTZ
    Blend: AUG-CC-PVTZ
    Number of shells: 407
    Number of basis function: 1223
    Number of Cartesian functions: 1419
    Spherical Harmonics?: true
    Max angular momentum: 3

  ==> CGRSolver (by Rob Parrish) <==

   Number of roots    =         1
   Preconditioning    =    JACOBI
   Convergence cutoff =     1E-06
   Maximum iterations =       100

  ==> CPHFRHamiltonian (by Rob Parrish) <== 

  ==> DiskDFJK: Density-Fitted J/K Matrices <==

    J tasked:                  Yes
    K tasked:                  Yes
    wK tasked:                  No
    OpenMP threads:              8
    Integrals threads:           8
    Memory [MiB]:            22888
    Algorithm:                Core
    Integral Cache:           NONE
    Schwarz Cutoff:          1E-12
    Fitting Condition:       1E-10

   => Auxiliary Basis Set <=

  Basis Set: (AUG-CC-PVTZ AUX)
    Blend: AUG-CC-PVTZ-JKFIT
    Number of shells: 790
    Number of basis function: 2696
    Number of Cartesian functions: 3342
    Spherical Harmonics?: true
    Max angular momentum: 4

  ==> CPHF Iterations <==

  => Iterations <=

             Iter  Converged  Remaining    Residual
  CGR           1          0          1   8.085E-02
  CGR           2          0          1   1.848E-02
  CGR           3          0          1   7.165E-03
  CGR           4          0          1   2.049E-03
  CGR           5          0          1   7.055E-04
  CGR           6          0          1   2.014E-04
  CGR           7          0          1   6.935E-05
  CGR           8          0          1   2.253E-05
  CGR           9          0          1   7.375E-06
  CGR          10          0          1   2.626E-06
  CGR          11          1          0   7.243E-07

    CGRSolver converged.

	-----------------------------------------------------------
	 ==================> DF-MP2 Energies <==================== 
	-----------------------------------------------------------
	 Reference Energy          =   -1327.8612620861451887 [Eh]
	 Singles Energy            =      -0.0000000000000000 [Eh]
	 Same-Spin Energy          =      -1.0146528994975645 [Eh]
	 Opposite-Spin Energy      =      -3.0760362345177601 [Eh]
	 Correlation Energy        =      -4.0906891340153244 [Eh]
	 Total Energy              =   -1331.9519512201604812 [Eh]
	-----------------------------------------------------------
	 ================> DF-SCS-MP2 Energies <================== 
	-----------------------------------------------------------
	 SCS Same-Spin Scale       =       0.3333333333333333 [-]
	 SCS Opposite-Spin Scale   =       1.2000000000000000 [-]
	 SCS Same-Spin Energy      =      -0.3382176331658548 [Eh]
	 SCS Opposite-Spin Energy  =      -3.6912434814213118 [Eh]
	 SCS Correlation Energy    =      -4.0294611145871668 [Eh]
	 SCS Total Energy          =   -1331.8907232007322818 [Eh]
	-----------------------------------------------------------



Properties will be evaluated at   0.000000,   0.000000,  -0.000000 [a0]

Properties computed using the MP2 density matrix

  Nuclear Dipole Moment: [e a0]
     X:     2.2577      Y:     9.6610      Z:    -5.2776

  Electronic Dipole Moment: [e a0]
     X:    -2.7011      Y:    -8.9225      Z:     5.5577

  Dipole Moment: [e a0]
     X:    -0.4435      Y:     0.7385      Z:     0.2802     Total:     0.9059

  Dipole Moment: [D]
     X:    -1.1272      Y:     1.8772      Z:     0.7121     Total:     2.3025


*** tstop() called on node92.bme.utexas.edu at Mon Nov  9 20:46:32 2020
Module time:
	user time   =   13179.91 seconds =     219.67 minutes
	system time =     149.82 seconds =       2.50 minutes
	total time  =       2161 seconds =      36.02 minutes
Total time:
	user time   =   16008.89 seconds =     266.81 minutes
	system time =     168.79 seconds =       2.81 minutes
	total time  =       2546 seconds =      42.43 minutes

    Psi4 stopped on: Monday, 09 November 2020 08:46PM
    Psi4 wall time for execution: 0:42:26.94

*** Psi4 exiting successfully. Buy a developer a beer!
