
    -----------------------------------------------------------------------
          Psi4: An Open-Source Ab Initio Electronic Structure Package
                               Psi4 1.3.2 release

                         Git: Rev {HEAD} ecbda83 


    R. M. Parrish, L. A. Burns, D. G. A. Smith, A. C. Simmonett,
    A. E. DePrince III, E. G. Hohenstein, U. Bozkaya, A. Yu. Sokolov,
    R. Di Remigio, R. M. Richard, J. F. Gonthier, A. M. James,
    H. R. McAlexander, A. Kumar, M. Saitow, X. Wang, B. P. Pritchard,
    P. Verma, H. F. Schaefer III, K. Patkowski, R. A. King, E. F. Valeev,
    F. A. Evangelista, J. M. Turney, T. D. Crawford, and C. D. Sherrill,
    J. Chem. Theory Comput. 13(7) pp 3185--3197 (2017).
    (doi: 10.1021/acs.jctc.7b00174)


                         Additional Contributions by
    P. Kraus, H. Kruse, M. H. Lechner, M. C. Schieber, R. A. Shaw,
    A. Alenaizan, R. Galvelis, Z. L. Glick, S. Lehtola, and J. P. Misiewicz

    -----------------------------------------------------------------------


    Psi4 started on: Wednesday, 11 November 2020 02:49PM

    Process ID: 83892
    Host:       node91.bme.utexas.edu
    PSIDATADIR: /home/xy3866/psi4conda/share/psi4
    Memory:     500.0 MiB
    Threads:    8
    
  ==> Input File <==

--------------------------------------------------------------------------
#psi4
#
memory 32 gb

molecule  {
0 1
  P       -2.2900960    -0.9400430     0.3446780
  O       -0.9821530    -0.2015620     0.9382890
  O        1.3422500    -1.6754830     1.2308510
  O        0.0787050     2.3596040     0.4621680
  O        3.0150593    -2.2212526    -0.7693792
  O        2.8473350     2.5031130     0.3715350
  O        4.1956880     0.4353970    -0.9728740
  O       -2.8268630     0.0333510    -0.8075310
  O       -3.2591210    -0.7232820     1.6216710
  O       -2.1189930    -2.3436440    -0.0996680
  C        0.1181620     0.0300090     0.0163190
  C        0.9770985    -1.3187331    -0.0611763
  C        0.8985890     1.2026440     0.5648510
  C        2.2596600    -1.0143070    -0.8180370
  C        2.1770750     1.3964720    -0.2280410
  C        3.0258420     0.1487050    -0.2103220
  C       -3.1242130     1.4315980    -0.4888860
  C       -3.5363170     2.0851650    -1.7841190
  H       -0.2830920     0.2988010    -0.9702380
  H        0.3702690    -2.0293640    -0.5720320
  H        1.1571200     0.9978770     1.6121560
  H        2.0609340    -0.7886600    -1.8727560
  H        1.9169870     1.6362870    -1.2735830
  H        3.2958550    -0.0945320     0.8276460
  H        0.5217750    -1.8880320     1.7115100
  H        0.6655400     3.1093110     0.6831840
  H        2.9735430    -2.5473740     0.0946540
  H        3.7214290     2.5491860    -0.0588690
  H        4.6397270    -0.4238340    -1.0970870
  H       -3.8083950    -1.5223380     1.7347280
  H       -3.9305460     1.4455410     0.2493860
  H       -2.2297620     1.8928800    -0.0590960
  H       -3.8005210     3.1308820    -1.6026710
  H       -2.7171960     2.0533230    -2.5048750
  H       -4.4009440     1.5743230    -2.2127240
units angstrom
no_reorient  #important for SAPT in psi4, default
symmetry c1  #important for SAPT in psi4, default
}

set PROPERTIES_ORIGIN ["COM"]
properties('MP2/aug-cc-pvtz', properties = ['dipole'])
--------------------------------------------------------------------------

  Memory set to  29.802 GiB by Python driver.
    SCF Algorithm Type (re)set to DF.

*** tstart() called on node91.bme.utexas.edu
*** at Wed Nov 11 14:49:44 2020

   => Loading Basis Set <=

    Name: AUG-CC-PVTZ
    Role: ORBITAL
    Keyword: BASIS
    atoms 1     entry P          line   820 file /home/xy3866/psi4conda/share/psi4/basis/aug-cc-pvtz.gbs 
    atoms 2-10  entry O          line   327 file /home/xy3866/psi4conda/share/psi4/basis/aug-cc-pvtz.gbs 
    atoms 11-18 entry C          line   235 file /home/xy3866/psi4conda/share/psi4/basis/aug-cc-pvtz.gbs 
    atoms 19-35 entry H          line    36 file /home/xy3866/psi4conda/share/psi4/basis/aug-cc-pvtz.gbs 


         ---------------------------------------------------------
                                   SCF
               by Justin Turney, Rob Parrish, Andy Simmonett
                          and Daniel G. A. Smith
                              RHF Reference
                        8 Threads,  30517 MiB Core
         ---------------------------------------------------------

  ==> Geometry <==

    Molecular point group: c1
    Full point group: C1

    Geometry (in Angstrom), charge = 0, multiplicity = 1:

       Center              X                  Y                   Z               Mass       
    ------------   -----------------  -----------------  -----------------  -----------------
         P           -2.288119506209    -0.935040386060     0.341894699228    30.973761998420
         O           -0.980176506209    -0.196559386060     0.935505699228    15.994914619570
         O            1.344226493791    -1.670480386060     1.228067699228    15.994914619570
         O            0.080681493791     2.364606613940     0.459384699228    15.994914619570
         O            3.017035793791    -2.216249986060    -0.772162500772    15.994914619570
         O            2.849311493791     2.508115613940     0.368751699228    15.994914619570
         O            4.197664493791     0.440399613940    -0.975657300772    15.994914619570
         O           -2.824886506209     0.038353613940    -0.810314300772    15.994914619570
         O           -3.257144506209    -0.718279386060     1.618887699228    15.994914619570
         O           -2.117016506209    -2.338641386060    -0.102451300772    15.994914619570
         C            0.120138493791     0.035011613940     0.013535699228    12.000000000000
         C            0.979074993791    -1.313730486060    -0.063959600772    12.000000000000
         C            0.900565493791     1.207646613940     0.562067699228    12.000000000000
         C            2.261636493791    -1.009304386060    -0.820820300772    12.000000000000
         C            2.179051493791     1.401474613940    -0.230824300772    12.000000000000
         C            3.027818493791     0.153707613940    -0.213105300772    12.000000000000
         C           -3.122236506209     1.436600613940    -0.491669300772    12.000000000000
         C           -3.534340506209     2.090167613940    -1.786902300772    12.000000000000
         H           -0.281115506209     0.303803613940    -0.973021300772     1.007825032230
         H            0.372245493791    -2.024361386060    -0.574815300772     1.007825032230
         H            1.159096493791     1.002879613940     1.609372699228     1.007825032230
         H            2.062910493791    -0.783657386060    -1.875539300772     1.007825032230
         H            1.918963493791     1.641289613940    -1.276366300772     1.007825032230
         H            3.297831493791    -0.089529386060     0.824862699228     1.007825032230
         H            0.523751493791    -1.883029386060     1.708726699228     1.007825032230
         H            0.667516493791     3.114313613940     0.680400699228     1.007825032230
         H            2.975519493791    -2.542371386060     0.091870699228     1.007825032230
         H            3.723405493791     2.554188613940    -0.061652300772     1.007825032230
         H            4.641703493791    -0.418831386060    -1.099870300772     1.007825032230
         H           -3.806418506209    -1.517335386060     1.731944699228     1.007825032230
         H           -3.928569506209     1.450543613940     0.246602699228     1.007825032230
         H           -2.227785506209     1.897882613940    -0.061879300772     1.007825032230
         H           -3.798544506209     3.135884613940    -1.605454300772     1.007825032230
         H           -2.715219506209     2.058325613940    -2.507658300772     1.007825032230
         H           -4.398967506209     1.579325613940    -2.215507300772     1.007825032230

  Running in c1 symmetry.

  Rotational constants: A =      0.01966  B =      0.00845  C =      0.00687 [cm^-1]
  Rotational constants: A =    589.31393  B =    253.29177  C =    205.90698 [MHz]
  Nuclear repulsion = 1772.165784832306372

  Charge       = 0
  Multiplicity = 1
  Electrons    = 152
  Nalpha       = 76
  Nbeta        = 76

  ==> Algorithm <==

  SCF Algorithm Type is DF.
  DIIS enabled.
  MOM disabled.
  Fractional occupation disabled.
  Guess Type is SAD.
  Energy threshold   = 1.00e-10
  Density threshold  = 1.00e-10
  Integral threshold = 0.00e+00

  ==> Primary Basis <==

  Basis Set: AUG-CC-PVTZ
    Blend: AUG-CC-PVTZ
    Number of shells: 407
    Number of basis function: 1223
    Number of Cartesian functions: 1419
    Spherical Harmonics?: true
    Max angular momentum: 3

   => Loading Basis Set <=

    Name: (AUG-CC-PVTZ AUX)
    Role: JKFIT
    Keyword: DF_BASIS_SCF
    atoms 1     entry P          line   644 file /home/xy3866/psi4conda/share/psi4/basis/aug-cc-pvtz-jkfit.gbs 
    atoms 2-10  entry O          line   286 file /home/xy3866/psi4conda/share/psi4/basis/aug-cc-pvtz-jkfit.gbs 
    atoms 11-18 entry C          line   162 file /home/xy3866/psi4conda/share/psi4/basis/aug-cc-pvtz-jkfit.gbs 
    atoms 19-35 entry H          line    70 file /home/xy3866/psi4conda/share/psi4/basis/aug-cc-pvtz-jkfit.gbs 

  ==> Pre-Iterations <==

   -------------------------------------------------------
    Irrep   Nso     Nmo     Nalpha   Nbeta   Ndocc  Nsocc
   -------------------------------------------------------
     A       1223    1223       0       0       0       0
   -------------------------------------------------------
    Total    1223    1223      76      76      76       0
   -------------------------------------------------------

  ==> Integral Setup <==

  ==> DiskDFJK: Density-Fitted J/K Matrices <==

    J tasked:                  Yes
    K tasked:                  Yes
    wK tasked:                  No
    OpenMP threads:              8
    Integrals threads:           8
    Memory [MiB]:            22888
    Algorithm:                Core
    Integral Cache:           NONE
    Schwarz Cutoff:          1E-12
    Fitting Condition:       1E-10

   => Auxiliary Basis Set <=

  Basis Set: (AUG-CC-PVTZ AUX)
    Blend: AUG-CC-PVTZ-JKFIT
    Number of shells: 790
    Number of basis function: 2696
    Number of Cartesian functions: 3342
    Spherical Harmonics?: true
    Max angular momentum: 4

  Minimum eigenvalue in the overlap matrix is 7.9426684088E-07.
  Using Symmetric Orthogonalization.

  SCF Guess: Superposition of Atomic Densities via on-the-fly atomic UHF.

  ==> Iterations <==

                           Total Energy        Delta E     RMS |[F,P]|

   @DF-RHF iter SAD: -1327.17304928141152   -1.32717e+03   0.00000e+00 
   @DF-RHF iter   1: -1327.24876288827113   -7.57136e-02   9.38226e-04 DIIS
   @DF-RHF iter   2: -1327.70625054375159   -4.57488e-01   5.37687e-04 DIIS
   @DF-RHF iter   3: -1327.84882254939816   -1.42572e-01   9.05056e-05 DIIS
   @DF-RHF iter   4: -1327.85588645003099   -7.06390e-03   3.47022e-05 DIIS
   @DF-RHF iter   5: -1327.85674864428915   -8.62194e-04   8.01763e-06 DIIS
   @DF-RHF iter   6: -1327.85680644709805   -5.78028e-05   2.54140e-06 DIIS
   @DF-RHF iter   7: -1327.85681350551545   -7.05842e-06   8.08926e-07 DIIS
   @DF-RHF iter   8: -1327.85681432112301   -8.15608e-07   2.43834e-07 DIIS
   @DF-RHF iter   9: -1327.85681440216104   -8.10380e-08   7.94853e-08 DIIS
   @DF-RHF iter  10: -1327.85681441016663   -8.00560e-09   2.50586e-08 DIIS
   @DF-RHF iter  11: -1327.85681441084421   -6.77574e-10   7.58754e-09 DIIS
   @DF-RHF iter  12: -1327.85681441090696   -6.27551e-11   2.26933e-09 DIIS
   @DF-RHF iter  13: -1327.85681441090969   -2.72848e-12   7.22444e-10 DIIS
   @DF-RHF iter  14: -1327.85681441089264    1.70530e-11   3.04074e-10 DIIS
   @DF-RHF iter  15: -1327.85681441089514   -2.50111e-12   9.93965e-11 DIIS
  Energy and wave function converged.


  ==> Post-Iterations <==

    Orbital Energies [Eh]
    ---------------------

    Doubly Occupied:                                                      

       1A    -80.115510     2A    -20.613659     3A    -20.603986  
       4A    -20.597598     5A    -20.586371     6A    -20.577068  
       7A    -20.576716     8A    -20.572394     9A    -20.565964  
      10A    -20.522635    11A    -11.317323    12A    -11.301692  
      13A    -11.299402    14A    -11.298321    15A    -11.297385  
      16A    -11.296698    17A    -11.293561    18A    -11.229045  
      19A     -7.630952    20A     -5.529460    21A     -5.529081  
      22A     -5.527896    23A     -1.458325    24A     -1.418760  
      25A     -1.397680    26A     -1.394258    27A     -1.385806  
      28A     -1.375999    29A     -1.369277    30A     -1.356414  
      31A     -1.302956    32A     -1.112402    33A     -1.039449  
      34A     -1.007643    35A     -1.001811    36A     -0.881386  
      37A     -0.864727    38A     -0.859245    39A     -0.821813  
      40A     -0.811850    41A     -0.751365    42A     -0.747347  
      43A     -0.732616    44A     -0.727472    45A     -0.707670  
      46A     -0.688826    47A     -0.685075    48A     -0.673682  
      49A     -0.666906    50A     -0.661573    51A     -0.642231  
      52A     -0.634853    53A     -0.628038    54A     -0.616453  
      55A     -0.602587    56A     -0.599200    57A     -0.581488  
      58A     -0.574373    59A     -0.571565    60A     -0.562085  
      61A     -0.556457    62A     -0.549816    63A     -0.541531  
      64A     -0.540645    65A     -0.530214    66A     -0.522314  
      67A     -0.512427    68A     -0.502782    69A     -0.497122  
      70A     -0.480650    71A     -0.477718    72A     -0.474131  
      73A     -0.458975    74A     -0.456472    75A     -0.440133  
      76A     -0.437048  

    Virtual:                                                              

      77A      0.024658    78A      0.029636    79A      0.031910  
      80A      0.035566    81A      0.041472    82A      0.043021  
      83A      0.046706    84A      0.051555    85A      0.054413  
      86A      0.059699    87A      0.062012    88A      0.064233  
      89A      0.072375    90A      0.074160    91A      0.076013  
      92A      0.087607    93A      0.090843    94A      0.093662  
      95A      0.103669    96A      0.105539    97A      0.111788  
      98A      0.115474    99A      0.117665   100A      0.119860  
     101A      0.121289   102A      0.126132   103A      0.127686  
     104A      0.130696   105A      0.133713   106A      0.140788  
     107A      0.143145   108A      0.144834   109A      0.148605  
     110A      0.150569   111A      0.153333   112A      0.154320  
     113A      0.157951   114A      0.160848   115A      0.164532  
     116A      0.168912   117A      0.171538   118A      0.173611  
     119A      0.176421   120A      0.178744   121A      0.181731  
     122A      0.190167   123A      0.193327   124A      0.197044  
     125A      0.207444   126A      0.210253   127A      0.214337  
     128A      0.219892   129A      0.221217   130A      0.224086  
     131A      0.230386   132A      0.233502   133A      0.235201  
     134A      0.238442   135A      0.241926   136A      0.244115  
     137A      0.245274   138A      0.251533   139A      0.255262  
     140A      0.256229   141A      0.258852   142A      0.261126  
     143A      0.262713   144A      0.268571   145A      0.270391  
     146A      0.273286   147A      0.278129   148A      0.279482  
     149A      0.281227   150A      0.285731   151A      0.289702  
     152A      0.293476   153A      0.295638   154A      0.297186  
     155A      0.300258   156A      0.301195   157A      0.309569  
     158A      0.311255   159A      0.312790   160A      0.314165  
     161A      0.317510   162A      0.321802   163A      0.325654  
     164A      0.329216   165A      0.330659   166A      0.335589  
     167A      0.336541   168A      0.340261   169A      0.343618  
     170A      0.348463   171A      0.350058   172A      0.355159  
     173A      0.358474   174A      0.358769   175A      0.361736  
     176A      0.363555   177A      0.368013   178A      0.372018  
     179A      0.376031   180A      0.378858   181A      0.384217  
     182A      0.385479   183A      0.389213   184A      0.392761  
     185A      0.393286   186A      0.394594   187A      0.398754  
     188A      0.402412   189A      0.403746   190A      0.406027  
     191A      0.409015   192A      0.415471   193A      0.419779  
     194A      0.423224   195A      0.425229   196A      0.429837  
     197A      0.430875   198A      0.433380   199A      0.439768  
     200A      0.440628   201A      0.444525   202A      0.446327  
     203A      0.447895   204A      0.452229   205A      0.454293  
     206A      0.455461   207A      0.460341   208A      0.462091  
     209A      0.467448   210A      0.470045   211A      0.473327  
     212A      0.474772   213A      0.476644   214A      0.478273  
     215A      0.484029   216A      0.487035   217A      0.489343  
     218A      0.494842   219A      0.497417   220A      0.499256  
     221A      0.499637   222A      0.503194   223A      0.508432  
     224A      0.511408   225A      0.515467   226A      0.520251  
     227A      0.522564   228A      0.524424   229A      0.527916  
     230A      0.530198   231A      0.531743   232A      0.534906  
     233A      0.541487   234A      0.543359   235A      0.548748  
     236A      0.549269   237A      0.553302   238A      0.556458  
     239A      0.557833   240A      0.559803   241A      0.563169  
     242A      0.567326   243A      0.568578   244A      0.571174  
     245A      0.574931   246A      0.579253   247A      0.579309  
     248A      0.585867   249A      0.589569   250A      0.591224  
     251A      0.597950   252A      0.598631   253A      0.602622  
     254A      0.607490   255A      0.610042   256A      0.611746  
     257A      0.615454   258A      0.617794   259A      0.626945  
     260A      0.628859   261A      0.632706   262A      0.633463  
     263A      0.635758   264A      0.640812   265A      0.648759  
     266A      0.651214   267A      0.652863   268A      0.657065  
     269A      0.661560   270A      0.665140   271A      0.670185  
     272A      0.674886   273A      0.677291   274A      0.678502  
     275A      0.685123   276A      0.687666   277A      0.693372  
     278A      0.696551   279A      0.703054   280A      0.706842  
     281A      0.708493   282A      0.718262   283A      0.725006  
     284A      0.727632   285A      0.729239   286A      0.735550  
     287A      0.739354   288A      0.742451   289A      0.747461  
     290A      0.752402   291A      0.756987   292A      0.759628  
     293A      0.771034   294A      0.775923   295A      0.780649  
     296A      0.783433   297A      0.787357   298A      0.792244  
     299A      0.802377   300A      0.805130   301A      0.809824  
     302A      0.811236   303A      0.819283   304A      0.823631  
     305A      0.826201   306A      0.827082   307A      0.838064  
     308A      0.842062   309A      0.845776   310A      0.846376  
     311A      0.851066   312A      0.851297   313A      0.853860  
     314A      0.863786   315A      0.869792   316A      0.877936  
     317A      0.879233   318A      0.882019   319A      0.887476  
     320A      0.891283   321A      0.897078   322A      0.904588  
     323A      0.905889   324A      0.908924   325A      0.909881  
     326A      0.912367   327A      0.917482   328A      0.921843  
     329A      0.923013   330A      0.929703   331A      0.935395  
     332A      0.937550   333A      0.939317   334A      0.943049  
     335A      0.945862   336A      0.949516   337A      0.951783  
     338A      0.956694   339A      0.959886   340A      0.967634  
     341A      0.970472   342A      0.973217   343A      0.975835  
     344A      0.982940   345A      0.984107   346A      0.990685  
     347A      0.995480   348A      0.998193   349A      1.000935  
     350A      1.004175   351A      1.005962   352A      1.009339  
     353A      1.014171   354A      1.017718   355A      1.021186  
     356A      1.023272   357A      1.031415   358A      1.033719  
     359A      1.042299   360A      1.043523   361A      1.049000  
     362A      1.052522   363A      1.053786   364A      1.058659  
     365A      1.061442   366A      1.062053   367A      1.069830  
     368A      1.074389   369A      1.075841   370A      1.077442  
     371A      1.082515   372A      1.088424   373A      1.089955  
     374A      1.093008   375A      1.097461   376A      1.100514  
     377A      1.102464   378A      1.107222   379A      1.109824  
     380A      1.111997   381A      1.114236   382A      1.119341  
     383A      1.125621   384A      1.127996   385A      1.132672  
     386A      1.135681   387A      1.140476   388A      1.142672  
     389A      1.143979   390A      1.146307   391A      1.154315  
     392A      1.158664   393A      1.164374   394A      1.165518  
     395A      1.171579   396A      1.173679   397A      1.179067  
     398A      1.181659   399A      1.183184   400A      1.186242  
     401A      1.189917   402A      1.194513   403A      1.196796  
     404A      1.202971   405A      1.207734   406A      1.210758  
     407A      1.214230   408A      1.215695   409A      1.217474  
     410A      1.224280   411A      1.227119   412A      1.228879  
     413A      1.233362   414A      1.240800   415A      1.241735  
     416A      1.246614   417A      1.247231   418A      1.252898  
     419A      1.258751   420A      1.263356   421A      1.270474  
     422A      1.272159   423A      1.277029   424A      1.283397  
     425A      1.285121   426A      1.286643   427A      1.293235  
     428A      1.297614   429A      1.301289   430A      1.307457  
     431A      1.311831   432A      1.314113   433A      1.315804  
     434A      1.324087   435A      1.326516   436A      1.335103  
     437A      1.337500   438A      1.347583   439A      1.351335  
     440A      1.360615   441A      1.367111   442A      1.368214  
     443A      1.374157   444A      1.378802   445A      1.381062  
     446A      1.387753   447A      1.391883   448A      1.392532  
     449A      1.396321   450A      1.400447   451A      1.408736  
     452A      1.412273   453A      1.418998   454A      1.423002  
     455A      1.431410   456A      1.434331   457A      1.439617  
     458A      1.444972   459A      1.450267   460A      1.455658  
     461A      1.465999   462A      1.468310   463A      1.471657  
     464A      1.474981   465A      1.479069   466A      1.482464  
     467A      1.489576   468A      1.499561   469A      1.504570  
     470A      1.508443   471A      1.512856   472A      1.516791  
     473A      1.521658   474A      1.526079   475A      1.530527  
     476A      1.536629   477A      1.537604   478A      1.540829  
     479A      1.548004   480A      1.551617   481A      1.557289  
     482A      1.565793   483A      1.570693   484A      1.574265  
     485A      1.576307   486A      1.578963   487A      1.587613  
     488A      1.594459   489A      1.601299   490A      1.605090  
     491A      1.616246   492A      1.617549   493A      1.622590  
     494A      1.624849   495A      1.628181   496A      1.633805  
     497A      1.634888   498A      1.639223   499A      1.643404  
     500A      1.649337   501A      1.659645   502A      1.663462  
     503A      1.669166   504A      1.672453   505A      1.677086  
     506A      1.683377   507A      1.688177   508A      1.688515  
     509A      1.689050   510A      1.695511   511A      1.705174  
     512A      1.711044   513A      1.714321   514A      1.717192  
     515A      1.721318   516A      1.725540   517A      1.730413  
     518A      1.733819   519A      1.736351   520A      1.740957  
     521A      1.748983   522A      1.751860   523A      1.753656  
     524A      1.756090   525A      1.761179   526A      1.773312  
     527A      1.776123   528A      1.782360   529A      1.786142  
     530A      1.793597   531A      1.799519   532A      1.801547  
     533A      1.806900   534A      1.813622   535A      1.816627  
     536A      1.818133   537A      1.831315   538A      1.831671  
     539A      1.834039   540A      1.841064   541A      1.847164  
     542A      1.850352   543A      1.856627   544A      1.861792  
     545A      1.868176   546A      1.870508   547A      1.871940  
     548A      1.878259   549A      1.880038   550A      1.880990  
     551A      1.888287   552A      1.898235   553A      1.902056  
     554A      1.905042   555A      1.910619   556A      1.916107  
     557A      1.920176   558A      1.926210   559A      1.929111  
     560A      1.930599   561A      1.936606   562A      1.943587  
     563A      1.948690   564A      1.950162   565A      1.962447  
     566A      1.965480   567A      1.973434   568A      1.975769  
     569A      1.980696   570A      1.982255   571A      1.985488  
     572A      1.992650   573A      1.998600   574A      2.003838  
     575A      2.004303   576A      2.006018   577A      2.017086  
     578A      2.021556   579A      2.023518   580A      2.031995  
     581A      2.035886   582A      2.039368   583A      2.047342  
     584A      2.054005   585A      2.056941   586A      2.065615  
     587A      2.069251   588A      2.072722   589A      2.083341  
     590A      2.086406   591A      2.088818   592A      2.096084  
     593A      2.100197   594A      2.107413   595A      2.114899  
     596A      2.119000   597A      2.124521   598A      2.126362  
     599A      2.129764   600A      2.139025   601A      2.146577  
     602A      2.155327   603A      2.159945   604A      2.164273  
     605A      2.168024   606A      2.173567   607A      2.179277  
     608A      2.187886   609A      2.192424   610A      2.201184  
     611A      2.203044   612A      2.208138   613A      2.221475  
     614A      2.224515   615A      2.228326   616A      2.240802  
     617A      2.242164   618A      2.247310   619A      2.249277  
     620A      2.257474   621A      2.261042   622A      2.266066  
     623A      2.272222   624A      2.274076   625A      2.279233  
     626A      2.284235   627A      2.299719   628A      2.304561  
     629A      2.308510   630A      2.317028   631A      2.320977  
     632A      2.321654   633A      2.332678   634A      2.333979  
     635A      2.342638   636A      2.350460   637A      2.361852  
     638A      2.368251   639A      2.381326   640A      2.383567  
     641A      2.391988   642A      2.405753   643A      2.413985  
     644A      2.419882   645A      2.433684   646A      2.435286  
     647A      2.441899   648A      2.443003   649A      2.445463  
     650A      2.453552   651A      2.463215   652A      2.469790  
     653A      2.476092   654A      2.485982   655A      2.491531  
     656A      2.505697   657A      2.509395   658A      2.518816  
     659A      2.520019   660A      2.530463   661A      2.534373  
     662A      2.541003   663A      2.548422   664A      2.556044  
     665A      2.566132   666A      2.579781   667A      2.586081  
     668A      2.591191   669A      2.596002   670A      2.600456  
     671A      2.609688   672A      2.613098   673A      2.622944  
     674A      2.636345   675A      2.641682   676A      2.644493  
     677A      2.656021   678A      2.664245   679A      2.664795  
     680A      2.674338   681A      2.678687   682A      2.687440  
     683A      2.689111   684A      2.699093   685A      2.704297  
     686A      2.707375   687A      2.715204   688A      2.730749  
     689A      2.737082   690A      2.746999   691A      2.753292  
     692A      2.755333   693A      2.765980   694A      2.778140  
     695A      2.781221   696A      2.789037   697A      2.795765  
     698A      2.798054   699A      2.808331   700A      2.818965  
     701A      2.821391   702A      2.827529   703A      2.837135  
     704A      2.859573   705A      2.864433   706A      2.868189  
     707A      2.879720   708A      2.884770   709A      2.890584  
     710A      2.896432   711A      2.906989   712A      2.915913  
     713A      2.920769   714A      2.928603   715A      2.940917  
     716A      2.950341   717A      2.952888   718A      2.969362  
     719A      2.971266   720A      2.979738   721A      2.985127  
     722A      2.987988   723A      2.992528   724A      2.999921  
     725A      3.013873   726A      3.015199   727A      3.021989  
     728A      3.031156   729A      3.051800   730A      3.052200  
     731A      3.059542   732A      3.067178   733A      3.073594  
     734A      3.080313   735A      3.094317   736A      3.103513  
     737A      3.106686   738A      3.114598   739A      3.125105  
     740A      3.130506   741A      3.133902   742A      3.145553  
     743A      3.153938   744A      3.159129   745A      3.172065  
     746A      3.176386   747A      3.189716   748A      3.194003  
     749A      3.199563   750A      3.200678   751A      3.214575  
     752A      3.215132   753A      3.230224   754A      3.233682  
     755A      3.244473   756A      3.260512   757A      3.262598  
     758A      3.271844   759A      3.274135   760A      3.285908  
     761A      3.293665   762A      3.295128   763A      3.305084  
     764A      3.311982   765A      3.331647   766A      3.333451  
     767A      3.337761   768A      3.344743   769A      3.346979  
     770A      3.362704   771A      3.363696   772A      3.373956  
     773A      3.375695   774A      3.389073   775A      3.393255  
     776A      3.405972   777A      3.418454   778A      3.420087  
     779A      3.428372   780A      3.434881   781A      3.443252  
     782A      3.449474   783A      3.477238   784A      3.478461  
     785A      3.491860   786A      3.499300   787A      3.511124  
     788A      3.511716   789A      3.531529   790A      3.538079  
     791A      3.553286   792A      3.559870   793A      3.583604  
     794A      3.591621   795A      3.602365   796A      3.607370  
     797A      3.621357   798A      3.643840   799A      3.650326  
     800A      3.653589   801A      3.670229   802A      3.676309  
     803A      3.684629   804A      3.700283   805A      3.703466  
     806A      3.715282   807A      3.730589   808A      3.738577  
     809A      3.741556   810A      3.746330   811A      3.755744  
     812A      3.763277   813A      3.780775   814A      3.788658  
     815A      3.792618   816A      3.812021   817A      3.822044  
     818A      3.835326   819A      3.843868   820A      3.852229  
     821A      3.856968   822A      3.861649   823A      3.873583  
     824A      3.878979   825A      3.883756   826A      3.896740  
     827A      3.911000   828A      3.911630   829A      3.933566  
     830A      3.935856   831A      3.952994   832A      3.958291  
     833A      3.960226   834A      3.968781   835A      3.977575  
     836A      3.984347   837A      3.987350   838A      4.000235  
     839A      4.003017   840A      4.015573   841A      4.027491  
     842A      4.037799   843A      4.045536   844A      4.052338  
     845A      4.058618   846A      4.065570   847A      4.075879  
     848A      4.080684   849A      4.089120   850A      4.097131  
     851A      4.103241   852A      4.107749   853A      4.116018  
     854A      4.123579   855A      4.135970   856A      4.143775  
     857A      4.150248   858A      4.165179   859A      4.168296  
     860A      4.176067   861A      4.179647   862A      4.186612  
     863A      4.191461   864A      4.203493   865A      4.206822  
     866A      4.208868   867A      4.218909   868A      4.225793  
     869A      4.245327   870A      4.249549   871A      4.256248  
     872A      4.264805   873A      4.273335   874A      4.278290  
     875A      4.282217   876A      4.293084   877A      4.301130  
     878A      4.309212   879A      4.311378   880A      4.320024  
     881A      4.329307   882A      4.340376   883A      4.342878  
     884A      4.355024   885A      4.363207   886A      4.368580  
     887A      4.379825   888A      4.381355   889A      4.384715  
     890A      4.394818   891A      4.412507   892A      4.424951  
     893A      4.429257   894A      4.433886   895A      4.439497  
     896A      4.447626   897A      4.457768   898A      4.460211  
     899A      4.472109   900A      4.480534   901A      4.487149  
     902A      4.497386   903A      4.504417   904A      4.506543  
     905A      4.527613   906A      4.539459   907A      4.543611  
     908A      4.552834   909A      4.560068   910A      4.570608  
     911A      4.579692   912A      4.585655   913A      4.590122  
     914A      4.598264   915A      4.603673   916A      4.611759  
     917A      4.621651   918A      4.634862   919A      4.638508  
     920A      4.644280   921A      4.654565   922A      4.665216  
     923A      4.670664   924A      4.679111   925A      4.688380  
     926A      4.698817   927A      4.706972   928A      4.718054  
     929A      4.723542   930A      4.739586   931A      4.747916  
     932A      4.759168   933A      4.767956   934A      4.769235  
     935A      4.786686   936A      4.797375   937A      4.803284  
     938A      4.824669   939A      4.826961   940A      4.835655  
     941A      4.840782   942A      4.846302   943A      4.848990  
     944A      4.859867   945A      4.873734   946A      4.878261  
     947A      4.888701   948A      4.897138   949A      4.901265  
     950A      4.917098   951A      4.922032   952A      4.927038  
     953A      4.938543   954A      4.953912   955A      4.966223  
     956A      4.974600   957A      4.988017   958A      4.990743  
     959A      4.997943   960A      5.015468   961A      5.022590  
     962A      5.036533   963A      5.050653   964A      5.053861  
     965A      5.059130   966A      5.070813   967A      5.075168  
     968A      5.090233   969A      5.094311   970A      5.100850  
     971A      5.115000   972A      5.119324   973A      5.127106  
     974A      5.134288   975A      5.137799   976A      5.148227  
     977A      5.157279   978A      5.162148   979A      5.169744  
     980A      5.179757   981A      5.186018   982A      5.206471  
     983A      5.213000   984A      5.216472   985A      5.218872  
     986A      5.234455   987A      5.253015   988A      5.260122  
     989A      5.270887   990A      5.277075   991A      5.288529  
     992A      5.293577   993A      5.302194   994A      5.309246  
     995A      5.318171   996A      5.329540   997A      5.345460  
     998A      5.358703   999A      5.366555  1000A      5.368442  
    1001A      5.370411  1002A      5.380286  1003A      5.384378  
    1004A      5.394007  1005A      5.405660  1006A      5.410892  
    1007A      5.431111  1008A      5.436816  1009A      5.440266  
    1010A      5.456178  1011A      5.465101  1012A      5.469420  
    1013A      5.474260  1014A      5.485678  1015A      5.490017  
    1016A      5.504961  1017A      5.516248  1018A      5.525796  
    1019A      5.539128  1020A      5.544750  1021A      5.547940  
    1022A      5.564551  1023A      5.578037  1024A      5.587402  
    1025A      5.598152  1026A      5.600925  1027A      5.615919  
    1028A      5.620061  1029A      5.629934  1030A      5.638272  
    1031A      5.647310  1032A      5.659465  1033A      5.674551  
    1034A      5.686211  1035A      5.694232  1036A      5.716507  
    1037A      5.730750  1038A      5.740076  1039A      5.747998  
    1040A      5.750725  1041A      5.761943  1042A      5.774517  
    1043A      5.780473  1044A      5.796459  1045A      5.809526  
    1046A      5.815187  1047A      5.824529  1048A      5.832367  
    1049A      5.845534  1050A      5.862056  1051A      5.883674  
    1052A      5.886422  1053A      5.916317  1054A      5.922804  
    1055A      5.951261  1056A      5.974426  1057A      6.000998  
    1058A      6.022755  1059A      6.030454  1060A      6.053827  
    1061A      6.071722  1062A      6.083418  1063A      6.094250  
    1064A      6.096762  1065A      6.132635  1066A      6.147899  
    1067A      6.172197  1068A      6.176952  1069A      6.203240  
    1070A      6.216819  1071A      6.258156  1072A      6.277418  
    1073A      6.285983  1074A      6.332373  1075A      6.358427  
    1076A      6.370983  1077A      6.392450  1078A      6.415556  
    1079A      6.454149  1080A      6.480340  1081A      6.496010  
    1082A      6.524732  1083A      6.537037  1084A      6.718088  
    1085A      6.730365  1086A      6.760449  1087A      6.775921  
    1088A      6.779678  1089A      6.790131  1090A      6.794442  
    1091A      6.805901  1092A      6.817705  1093A      6.836177  
    1094A      6.853082  1095A      6.866265  1096A      6.880446  
    1097A      6.886628  1098A      6.893713  1099A      6.900906  
    1100A      6.909754  1101A      6.922282  1102A      6.931602  
    1103A      6.947535  1104A      6.958763  1105A      6.961682  
    1106A      6.981564  1107A      6.991032  1108A      7.009594  
    1109A      7.018601  1110A      7.031306  1111A      7.044440  
    1112A      7.045528  1113A      7.058381  1114A      7.059109  
    1115A      7.078453  1116A      7.085878  1117A      7.097179  
    1118A      7.112040  1119A      7.126148  1120A      7.132104  
    1121A      7.146621  1122A      7.156346  1123A      7.172713  
    1124A      7.179490  1125A      7.185536  1126A      7.189566  
    1127A      7.195633  1128A      7.200949  1129A      7.214491  
    1130A      7.239876  1131A      7.246601  1132A      7.287858  
    1133A      7.299798  1134A      7.309475  1135A      7.317892  
    1136A      7.349270  1137A      7.358054  1138A      7.367765  
    1139A      7.372779  1140A      7.382114  1141A      7.395969  
    1142A      7.408320  1143A      7.419917  1144A      7.433849  
    1145A      7.439032  1146A      7.447866  1147A      7.469032  
    1148A      7.470220  1149A      7.483569  1150A      7.507587  
    1151A      7.516428  1152A      7.520598  1153A      7.536105  
    1154A      7.548684  1155A      7.553509  1156A      7.569355  
    1157A      7.586140  1158A      7.592210  1159A      7.610093  
    1160A      7.626154  1161A      7.631251  1162A      7.656593  
    1163A      7.659097  1164A      7.663804  1165A      7.680557  
    1166A      7.703253  1167A      7.715613  1168A      7.747103  
    1169A      7.762580  1170A      7.772420  1171A      7.783351  
    1172A      7.797904  1173A      7.832190  1174A      7.844089  
    1175A      7.858526  1176A      7.868130  1177A      7.883857  
    1178A      7.893444  1179A      7.918515  1180A      7.932776  
    1181A      7.943720  1182A      7.948065  1183A      7.951600  
    1184A      7.988408  1185A      8.008404  1186A      8.107947  
    1187A      8.129233  1188A      8.131983  1189A      8.171105  
    1190A      8.180646  1191A      8.200252  1192A      8.210261  
    1193A      8.257753  1194A      8.324206  1195A      8.355997  
    1196A      8.361263  1197A      8.370137  1198A      8.389001  
    1199A      8.416394  1200A      8.451377  1201A      8.703652  
    1202A      8.725063  1203A      8.755103  1204A      8.795748  
    1205A      8.863688  1206A     11.996079  1207A     13.705919  
    1208A     15.244929  1209A     15.852886  1210A     16.836678  
    1211A     16.912640  1212A     17.106522  1213A     17.242963  
    1214A     17.750425  1215A     18.185394  1216A     18.310156  
    1217A     18.893257  1218A     19.177887  1219A     19.365286  
    1220A     19.615439  1221A     19.698278  1222A     19.867593  
    1223A     20.433263  

    Final Occupation by Irrep:
              A 
    DOCC [    76 ]

  @DF-RHF Final Energy: -1327.85681441089514

   => Energetics <=

    Nuclear Repulsion Energy =           1772.1657848323063718
    One-Electron Energy =               -5356.4924763457265726
    Two-Electron Energy =                2256.4698771025246060
    Total Energy =                      -1327.8568144108953675

Computation Completed

*** tstop() called on node91.bme.utexas.edu at Wed Nov 11 14:56:10 2020
Module time:
	user time   =    2834.83 seconds =      47.25 minutes
	system time =      18.76 seconds =       0.31 minutes
	total time  =        386 seconds =       6.43 minutes
Total time:
	user time   =    2834.83 seconds =      47.25 minutes
	system time =      18.76 seconds =       0.31 minutes
	total time  =        386 seconds =       6.43 minutes
   => Loading Basis Set <=

    Name: (AUG-CC-PVTZ AUX)
    Role: RIFIT
    Keyword: DF_BASIS_MP2
    atoms 1     entry P          line   590 file /home/xy3866/psi4conda/share/psi4/basis/aug-cc-pvtz-ri.gbs 
    atoms 2-10  entry O          line   264 file /home/xy3866/psi4conda/share/psi4/basis/aug-cc-pvtz-ri.gbs 
    atoms 11-18 entry C          line   148 file /home/xy3866/psi4conda/share/psi4/basis/aug-cc-pvtz-ri.gbs 
    atoms 19-35 entry H          line    30 file /home/xy3866/psi4conda/share/psi4/basis/aug-cc-pvtz-ri.gbs 


*** tstart() called on node91.bme.utexas.edu
*** at Wed Nov 11 14:56:11 2020


  //>>>>>>>>>>>>>>>>>>>>>>>>>>>>>>>>>>>//
  //               DFMP2               //
  //<<<<<<<<<<<<<<<<<<<<<<<<<<<<<<<<<<<//

	 --------------------------------------------------------
	                          DF-MP2                         
	      2nd-Order Density-Fitted Moller-Plesset Theory     
	              RMP2 Wavefunction,   8 Threads             
	                                                         
	        Rob Parrish, Justin Turney, Andy Simmonett,      
	           Ed Hohenstein, and C. David Sherrill          
	 --------------------------------------------------------

   => Auxiliary Basis Set <=

  Basis Set: (AUG-CC-PVTZ AUX)
    Blend: AUG-CC-PVTZ-RI
    Number of shells: 751
    Number of basis function: 2731
    Number of Cartesian functions: 3438
    Spherical Harmonics?: true
    Max angular momentum: 4

	 --------------------------------------------------------
	                 NBF =  1223, NAUX =  2731
	 --------------------------------------------------------
	   CLASS    FOCC     OCC    AOCC    AVIR     VIR    FVIR
	   PAIRS       0      76      76    1147    1147       0
	 --------------------------------------------------------


         ------------------------------------------------------------
                                     CPHF                           
                                  Rob Parrish                       
         ------------------------------------------------------------

  ==> Geometry <==

    Molecular point group: c1
    Full point group: C1

    Geometry (in Angstrom), charge = 0, multiplicity = 1:

       Center              X                  Y                   Z               Mass       
    ------------   -----------------  -----------------  -----------------  -----------------
         P           -2.288119506209    -0.935040386060     0.341894699228    30.973761998420
         O           -0.980176506209    -0.196559386060     0.935505699228    15.994914619570
         O            1.344226493791    -1.670480386060     1.228067699228    15.994914619570
         O            0.080681493791     2.364606613940     0.459384699228    15.994914619570
         O            3.017035793791    -2.216249986060    -0.772162500772    15.994914619570
         O            2.849311493791     2.508115613940     0.368751699228    15.994914619570
         O            4.197664493791     0.440399613940    -0.975657300772    15.994914619570
         O           -2.824886506209     0.038353613940    -0.810314300772    15.994914619570
         O           -3.257144506209    -0.718279386060     1.618887699228    15.994914619570
         O           -2.117016506209    -2.338641386060    -0.102451300772    15.994914619570
         C            0.120138493791     0.035011613940     0.013535699228    12.000000000000
         C            0.979074993791    -1.313730486060    -0.063959600772    12.000000000000
         C            0.900565493791     1.207646613940     0.562067699228    12.000000000000
         C            2.261636493791    -1.009304386060    -0.820820300772    12.000000000000
         C            2.179051493791     1.401474613940    -0.230824300772    12.000000000000
         C            3.027818493791     0.153707613940    -0.213105300772    12.000000000000
         C           -3.122236506209     1.436600613940    -0.491669300772    12.000000000000
         C           -3.534340506209     2.090167613940    -1.786902300772    12.000000000000
         H           -0.281115506209     0.303803613940    -0.973021300772     1.007825032230
         H            0.372245493791    -2.024361386060    -0.574815300772     1.007825032230
         H            1.159096493791     1.002879613940     1.609372699228     1.007825032230
         H            2.062910493791    -0.783657386060    -1.875539300772     1.007825032230
         H            1.918963493791     1.641289613940    -1.276366300772     1.007825032230
         H            3.297831493791    -0.089529386060     0.824862699228     1.007825032230
         H            0.523751493791    -1.883029386060     1.708726699228     1.007825032230
         H            0.667516493791     3.114313613940     0.680400699228     1.007825032230
         H            2.975519493791    -2.542371386060     0.091870699228     1.007825032230
         H            3.723405493791     2.554188613940    -0.061652300772     1.007825032230
         H            4.641703493791    -0.418831386060    -1.099870300772     1.007825032230
         H           -3.806418506209    -1.517335386060     1.731944699228     1.007825032230
         H           -3.928569506209     1.450543613940     0.246602699228     1.007825032230
         H           -2.227785506209     1.897882613940    -0.061879300772     1.007825032230
         H           -3.798544506209     3.135884613940    -1.605454300772     1.007825032230
         H           -2.715219506209     2.058325613940    -2.507658300772     1.007825032230
         H           -4.398967506209     1.579325613940    -2.215507300772     1.007825032230

  Nuclear repulsion = 1772.165784832306372
  Reference energy  = -1327.856814410895140

  ==> Basis Set <==

  Basis Set: AUG-CC-PVTZ
    Blend: AUG-CC-PVTZ
    Number of shells: 407
    Number of basis function: 1223
    Number of Cartesian functions: 1419
    Spherical Harmonics?: true
    Max angular momentum: 3

  ==> CGRSolver (by Rob Parrish) <==

   Number of roots    =         1
   Preconditioning    =    JACOBI
   Convergence cutoff =     1E-06
   Maximum iterations =       100

  ==> CPHFRHamiltonian (by Rob Parrish) <== 

  ==> DiskDFJK: Density-Fitted J/K Matrices <==

    J tasked:                  Yes
    K tasked:                  Yes
    wK tasked:                  No
    OpenMP threads:              8
    Integrals threads:           8
    Memory [MiB]:            22888
    Algorithm:                Core
    Integral Cache:           NONE
    Schwarz Cutoff:          1E-12
    Fitting Condition:       1E-10

   => Auxiliary Basis Set <=

  Basis Set: (AUG-CC-PVTZ AUX)
    Blend: AUG-CC-PVTZ-JKFIT
    Number of shells: 790
    Number of basis function: 2696
    Number of Cartesian functions: 3342
    Spherical Harmonics?: true
    Max angular momentum: 4

  ==> CPHF Iterations <==

  => Iterations <=

             Iter  Converged  Remaining    Residual
  CGR           1          0          1   8.020E-02
  CGR           2          0          1   1.829E-02
  CGR           3          0          1   7.042E-03
  CGR           4          0          1   2.020E-03
  CGR           5          0          1   7.003E-04
  CGR           6          0          1   1.994E-04
  CGR           7          0          1   6.842E-05
  CGR           8          0          1   2.233E-05
  CGR           9          0          1   7.319E-06
  CGR          10          0          1   2.568E-06
  CGR          11          1          0   7.029E-07

    CGRSolver converged.

	-----------------------------------------------------------
	 ==================> DF-MP2 Energies <==================== 
	-----------------------------------------------------------
	 Reference Energy          =   -1327.8568144108951401 [Eh]
	 Singles Energy            =      -0.0000000000000000 [Eh]
	 Same-Spin Energy          =      -1.0134687866662389 [Eh]
	 Opposite-Spin Energy      =      -3.0735712849971928 [Eh]
	 Correlation Energy        =      -4.0870400716634316 [Eh]
	 Total Energy              =   -1331.9438544825586632 [Eh]
	-----------------------------------------------------------
	 ================> DF-SCS-MP2 Energies <================== 
	-----------------------------------------------------------
	 SCS Same-Spin Scale       =       0.3333333333333333 [-]
	 SCS Opposite-Spin Scale   =       1.2000000000000000 [-]
	 SCS Same-Spin Energy      =      -0.3378229288887463 [Eh]
	 SCS Opposite-Spin Energy  =      -3.6882855419966312 [Eh]
	 SCS Correlation Energy    =      -4.0261084708853776 [Eh]
	 SCS Total Energy          =   -1331.8829228817805870 [Eh]
	-----------------------------------------------------------



Properties will be evaluated at  -0.000000,   0.000000,  -0.000000 [a0]

Properties computed using the MP2 density matrix

  Nuclear Dipole Moment: [e a0]
     X:     2.2910      Y:     9.7383      Z:    -5.3281

  Electronic Dipole Moment: [e a0]
     X:    -2.6473      Y:    -9.0118      Z:     5.6212

  Dipole Moment: [e a0]
     X:    -0.3563      Y:     0.7264      Z:     0.2931     Total:     0.8606

  Dipole Moment: [D]
     X:    -0.9057      Y:     1.8464      Z:     0.7449     Total:     2.1874


*** tstop() called on node91.bme.utexas.edu at Wed Nov 11 15:42:10 2020
Module time:
	user time   =   13184.90 seconds =     219.75 minutes
	system time =     146.87 seconds =       2.45 minutes
	total time  =       2759 seconds =      45.98 minutes
Total time:
	user time   =   16020.53 seconds =     267.01 minutes
	system time =     165.66 seconds =       2.76 minutes
	total time  =       3146 seconds =      52.43 minutes

    Psi4 stopped on: Wednesday, 11 November 2020 03:42PM
    Psi4 wall time for execution: 0:52:26.87

*** Psi4 exiting successfully. Buy a developer a beer!
