
    -----------------------------------------------------------------------
          Psi4: An Open-Source Ab Initio Electronic Structure Package
                               Psi4 1.4a3.dev225 

                         Git: Rev {master} 7105e37 


    D. G. A. Smith, L. A. Burns, A. C. Simmonett, R. M. Parrish,
    M. C. Schieber, R. Galvelis, P. Kraus, H. Kruse, R. Di Remigio,
    A. Alenaizan, A. M. James, S. Lehtola, J. P. Misiewicz, M. Scheurer,
    R. A. Shaw, J. B. Schriber, Y. Xie, Z. L. Glick, D. A. Sirianni,
    J. S. O'Brien, J. M. Waldrop, A. Kumar, E. G. Hohenstein,
    B. P. Pritchard, B. R. Brooks, H. F. Schaefer III, A. Yu. Sokolov,
    K. Patkowski, A. E. DePrince III, U. Bozkaya, R. A. King,
    F. A. Evangelista, J. M. Turney, T. D. Crawford, C. D. Sherrill,
    J. Chem. Phys. 152(18) 184108 (2020). https://doi.org/10.1063/5.0006002

                            Additional Code Authors
    E. T. Seidl, C. L. Janssen, E. F. Valeev, M. L. Leininger,
    J. F. Gonthier, R. M. Richard, H. R. McAlexander, M. Saitow, X. Wang,
    P. Verma, and M. H. Lechner

             Previous Authors, Complete List of Code Contributors,
                       and Citations for Specific Modules
    https://github.com/psi4/psi4/blob/master/codemeta.json
    https://github.com/psi4/psi4/graphs/contributors
    http://psicode.org/psi4manual/master/introduction.html#citing-psifour

    -----------------------------------------------------------------------


    Psi4 started on: Sunday, 21 March 2021 08:35AM

    Process ID: 242840
    Host:       c445-132.stampede2.tacc.utexas.edu
    PSIDATADIR: /home1/07844/xy3866/miniconda3/envs/p4env/share/psi4
    Memory:     500.0 MiB
    Threads:    32
    
  ==> Input File <==

--------------------------------------------------------------------------
#psi4
#
memory 32 gb

molecule  {
0 1
  P       -2.3219140    -1.0563120    -0.0968450
  O       -1.0285840    -0.5623410     0.7549430
  O        1.3695440    -1.8069540     1.2202350
  O       -0.1592450     2.1412630     0.5207450
  O        3.3269040    -2.0858120    -0.6453880
  O        2.5724350     2.5270130     0.6374560
  O        4.2203020     0.6406430    -0.6358120
  O       -2.8737010     0.2643620    -0.8096810
  O       -3.3065970    -1.3497020     1.1531960
  O       -2.1044560    -2.1814480    -1.0350500
  C        0.1200290    -0.1583450    -0.0432010
  C        1.0698050    -1.3527180    -0.1046720
  C        0.7441670     1.0454510     0.6308160
  C        2.4193320    -0.9866070    -0.7068450
  C        2.0603010     1.3853380    -0.0470020
  C        2.9984252     0.1786281    -0.0177299
  C       -3.2473180     1.4231610     0.0025120
  C       -3.2076300     2.6262440    -0.9075720
  H       -0.2047330     0.1313700    -1.0514980
  H        0.5965010    -2.1549610    -0.6866410
  H        0.9371260     0.8063110     1.6860210
  H        2.3054700    -0.7437210    -1.7704410
  H        1.8633300     1.6367370    -1.1028410
  H        3.2142070    -0.0417910     1.0561650
  H        0.5126160    -2.0057500     1.6426110
  H        0.3598300     2.9232990     0.7925780
  H        3.1793900    -2.4823080     0.2360710
  H        3.4672560     2.6739710     0.2770410
  H        4.7639490    -0.1654590    -0.7244900
  H       -3.7873380    -2.1826420     0.9908450
  H       -4.2474700     1.2335250     0.4005830
  H       -2.5352900     1.5309660     0.8217280
  H       -3.5402110     3.5125760    -0.3587690
  H       -2.1856630     2.7912820    -1.2511950
  H       -3.8637180     2.4807570    -1.7684970
units angstrom
no_reorient  #important for SAPT in psi4, default
symmetry c1  #important for SAPT in psi4, default
}

set PROPERTIES_ORIGIN ["COM"]
properties('MP2/aug-cc-pvtz', properties = ['dipole'])
--------------------------------------------------------------------------

  Memory set to  29.802 GiB by Python driver.
    SCF Algorithm Type (re)set to DF.

*** tstart() called on c445-132.stampede2.tacc.utexas.edu
*** at Sun Mar 21 08:35:22 2021

   => Loading Basis Set <=

    Name: AUG-CC-PVTZ
    Role: ORBITAL
    Keyword: BASIS
    atoms 1     entry P          line   824 file /home1/07844/xy3866/miniconda3/envs/p4env/share/psi4/basis/aug-cc-pvtz.gbs 
    atoms 2-10  entry O          line   331 file /home1/07844/xy3866/miniconda3/envs/p4env/share/psi4/basis/aug-cc-pvtz.gbs 
    atoms 11-18 entry C          line   239 file /home1/07844/xy3866/miniconda3/envs/p4env/share/psi4/basis/aug-cc-pvtz.gbs 
    atoms 19-35 entry H          line    40 file /home1/07844/xy3866/miniconda3/envs/p4env/share/psi4/basis/aug-cc-pvtz.gbs 


         ---------------------------------------------------------
                                   SCF
               by Justin Turney, Rob Parrish, Andy Simmonett
                          and Daniel G. A. Smith
                              RHF Reference
                       32 Threads,  30517 MiB Core
         ---------------------------------------------------------

  ==> Geometry <==

    Molecular point group: c1
    Full point group: C1

    Geometry (in Angstrom), charge = 0, multiplicity = 1:

       Center              X                  Y                   Z               Mass       
    ------------   -----------------  -----------------  -----------------  -----------------
         P           -2.310333423977    -1.016884586219    -0.098314646687    30.973761998420
         O           -1.017003423977    -0.522913586219     0.753473353313    15.994914619570
         O            1.381124576023    -1.767526586219     1.218765353313    15.994914619570
         O           -0.147664423977     2.180690413781     0.519275353313    15.994914619570
         O            3.338484576023    -2.046384586219    -0.646857646687    15.994914619570
         O            2.584015576023     2.566440413781     0.635986353313    15.994914619570
         O            4.231882576023     0.680070413781    -0.637281646687    15.994914619570
         O           -2.862120423977     0.303789413781    -0.811150646687    15.994914619570
         O           -3.295016423977    -1.310274586219     1.151726353313    15.994914619570
         O           -2.092875423977    -2.142020586219    -1.036519646687    15.994914619570
         C            0.131609576023    -0.118917586219    -0.044670646687    12.000000000000
         C            1.081385576023    -1.313290586219    -0.106141646687    12.000000000000
         C            0.755747576023     1.084878413781     0.629346353313    12.000000000000
         C            2.430912576023    -0.947179586219    -0.708314646687    12.000000000000
         C            2.071881576023     1.424765413781    -0.048471646687    12.000000000000
         C            3.010005776023     0.218055513781    -0.019199546687    12.000000000000
         C           -3.235737423977     1.462588413781     0.001042353313    12.000000000000
         C           -3.196049423977     2.665671413781    -0.909041646687    12.000000000000
         H           -0.193152423977     0.170797413781    -1.052967646687     1.007825032230
         H            0.608081576023    -2.115533586219    -0.688110646687     1.007825032230
         H            0.948706576023     0.845738413781     1.684551353313     1.007825032230
         H            2.317050576023    -0.704293586219    -1.771910646687     1.007825032230
         H            1.874910576023     1.676164413781    -1.104310646687     1.007825032230
         H            3.225787576023    -0.002363586219     1.054695353313     1.007825032230
         H            0.524196576023    -1.966322586219     1.641141353313     1.007825032230
         H            0.371410576023     2.962726413781     0.791108353313     1.007825032230
         H            3.190970576023    -2.442880586219     0.234601353313     1.007825032230
         H            3.478836576023     2.713398413781     0.275571353313     1.007825032230
         H            4.775529576023    -0.126031586219    -0.725959646687     1.007825032230
         H           -3.775757423977    -2.143214586219     0.989375353313     1.007825032230
         H           -4.235889423977     1.272952413781     0.399113353313     1.007825032230
         H           -2.523709423977     1.570393413781     0.820258353313     1.007825032230
         H           -3.528630423977     3.552003413781    -0.360238646687     1.007825032230
         H           -2.174082423977     2.830709413781    -1.252664646687     1.007825032230
         H           -3.852137423977     2.520184413781    -1.769966646687     1.007825032230

  Running in c1 symmetry.

  Rotational constants: A =      0.01998  B =      0.00867  C =      0.00676 [cm^-1]
  Rotational constants: A =    598.99896  B =    259.78155  C =    202.62391 [MHz]
  Nuclear repulsion = 1775.076070701860999

  Charge       = 0
  Multiplicity = 1
  Electrons    = 152
  Nalpha       = 76
  Nbeta        = 76

  ==> Algorithm <==

  SCF Algorithm Type is DF.
  DIIS enabled.
  MOM disabled.
  Fractional occupation disabled.
  Guess Type is SAD.
  Energy threshold   = 1.00e-10
  Density threshold  = 1.00e-10
  Integral threshold = 1.00e-12

  ==> Primary Basis <==

  Basis Set: AUG-CC-PVTZ
    Blend: AUG-CC-PVTZ
    Number of shells: 407
    Number of basis functions: 1223
    Number of Cartesian functions: 1419
    Spherical Harmonics?: true
    Max angular momentum: 3

   => Loading Basis Set <=

    Name: (AUG-CC-PVTZ AUX)
    Role: JKFIT
    Keyword: DF_BASIS_SCF
    atoms 1     entry P          line   644 file /home1/07844/xy3866/miniconda3/envs/p4env/share/psi4/basis/aug-cc-pvtz-jkfit.gbs 
    atoms 2-10  entry O          line   286 file /home1/07844/xy3866/miniconda3/envs/p4env/share/psi4/basis/aug-cc-pvtz-jkfit.gbs 
    atoms 11-18 entry C          line   162 file /home1/07844/xy3866/miniconda3/envs/p4env/share/psi4/basis/aug-cc-pvtz-jkfit.gbs 
    atoms 19-35 entry H          line    70 file /home1/07844/xy3866/miniconda3/envs/p4env/share/psi4/basis/aug-cc-pvtz-jkfit.gbs 

  ==> Integral Setup <==

  ==> DiskDFJK: Density-Fitted J/K Matrices <==

    J tasked:                  Yes
    K tasked:                  Yes
    wK tasked:                  No
    OpenMP threads:             32
    Integrals threads:          32
    Memory [MiB]:            22888
    Algorithm:                Core
    Integral Cache:           NONE
    Schwarz Cutoff:          1E-12
    Fitting Condition:       1E-10

   => Auxiliary Basis Set <=

  Basis Set: (AUG-CC-PVTZ AUX)
    Blend: AUG-CC-PVTZ-JKFIT
    Number of shells: 790
    Number of basis functions: 2696
    Number of Cartesian functions: 3342
    Spherical Harmonics?: true
    Max angular momentum: 4

  Minimum eigenvalue in the overlap matrix is 7.9497755349E-07.
  Reciprocal condition number of the overlap matrix is 3.1302657561E-08.
    Using symmetric orthogonalization.

  ==> Pre-Iterations <==

  SCF Guess: Superposition of Atomic Densities via on-the-fly atomic UHF (no occupation information).

   -------------------------
    Irrep   Nso     Nmo    
   -------------------------
     A       1223    1223 
   -------------------------
    Total    1223    1223
   -------------------------

  ==> Iterations <==

                           Total Energy        Delta E     RMS |[F,P]|

   @DF-RHF iter SAD: -1327.13063540378448   -1.32713e+03   0.00000e+00 
   @DF-RHF iter   1: -1327.24703039567430   -1.16395e-01   9.36858e-04 DIIS
   @DF-RHF iter   2: -1327.70529680466507   -4.58266e-01   5.38997e-04 DIIS
   @DF-RHF iter   3: -1327.84918920858422   -1.43892e-01   9.09315e-05 DIIS
   @DF-RHF iter   4: -1327.85631500337740   -7.12579e-03   3.51582e-05 DIIS
   @DF-RHF iter   5: -1327.85720243969490   -8.87436e-04   8.01857e-06 DIIS
   @DF-RHF iter   6: -1327.85726162830065   -5.91886e-05   2.54187e-06 DIIS
   @DF-RHF iter   7: -1327.85726880866901   -7.18037e-06   8.39229e-07 DIIS
   @DF-RHF iter   8: -1327.85726967347796   -8.64809e-07   2.53098e-07 DIIS
   @DF-RHF iter   9: -1327.85726975972329   -8.62453e-08   8.27427e-08 DIIS
   @DF-RHF iter  10: -1327.85726976826072   -8.53743e-09   2.54879e-08 DIIS
   @DF-RHF iter  11: -1327.85726976895921   -6.98492e-10   7.74836e-09 DIIS
   @DF-RHF iter  12: -1327.85726976902015   -6.09361e-11   2.30176e-09 DIIS
   @DF-RHF iter  13: -1327.85726976902561   -5.45697e-12   7.24686e-10 DIIS
   @DF-RHF iter  14: -1327.85726976902606   -4.54747e-13   2.99178e-10 DIIS
   @DF-RHF iter  15: -1327.85726976903106   -5.00222e-12   9.68105e-11 DIIS
  Energy and wave function converged.


  ==> Post-Iterations <==

    Orbital Energies [Eh]
    ---------------------

    Doubly Occupied:                                                      

       1A    -80.117086     2A    -20.615217     3A    -20.608458  
       4A    -20.596197     5A    -20.584715     6A    -20.579995  
       7A    -20.575569     8A    -20.574305     9A    -20.574179  
      10A    -20.522831    11A    -11.321868    12A    -11.306609  
      13A    -11.300299    14A    -11.299669    15A    -11.299553  
      16A    -11.296237    17A    -11.294007    18A    -11.222946  
      19A     -7.632349    20A     -5.530884    21A     -5.530382  
      22A     -5.529321    23A     -1.458773    24A     -1.411252  
      25A     -1.394488    26A     -1.393054    27A     -1.385290  
      28A     -1.371178    29A     -1.364578    30A     -1.352344  
      31A     -1.303011    32A     -1.121936    33A     -1.035635  
      34A     -1.015208    35A     -1.004491    36A     -0.879267  
      37A     -0.863041    38A     -0.859274    39A     -0.822451  
      40A     -0.810236    41A     -0.754776    42A     -0.745238  
      43A     -0.729158    44A     -0.726184    45A     -0.706111  
      46A     -0.687527    47A     -0.678867    48A     -0.675367  
      49A     -0.660091    50A     -0.659836    51A     -0.642004  
      52A     -0.636081    53A     -0.624318    54A     -0.613621  
      55A     -0.604339    56A     -0.596326    57A     -0.580646  
      58A     -0.578222    59A     -0.570419    60A     -0.560119  
      61A     -0.555369    62A     -0.548251    63A     -0.539461  
      64A     -0.537566    65A     -0.529587    66A     -0.518078  
      67A     -0.508417    68A     -0.502487    69A     -0.494443  
      70A     -0.487050    71A     -0.478956    72A     -0.475737  
      73A     -0.462916    74A     -0.453032    75A     -0.452552  
      76A     -0.444304  

    Virtual:                                                              

      77A      0.025224    78A      0.030197    79A      0.032111  
      80A      0.035372    81A      0.041929    82A      0.042738  
      83A      0.047294    84A      0.050594    85A      0.056652  
      86A      0.057908    87A      0.062556    88A      0.064212  
      89A      0.072568    90A      0.076188    91A      0.078588  
      92A      0.080751    93A      0.087759    94A      0.093893  
      95A      0.105264    96A      0.108607    97A      0.112189  
      98A      0.115825    99A      0.118624   100A      0.119367  
     101A      0.121082   102A      0.126857   103A      0.128335  
     104A      0.130566   105A      0.135793   106A      0.140062  
     107A      0.141230   108A      0.144513   109A      0.147411  
     110A      0.148417   111A      0.153590   112A      0.154814  
     113A      0.157848   114A      0.160869   115A      0.163706  
     116A      0.166879   117A      0.171114   118A      0.171297  
     119A      0.179150   120A      0.181974   121A      0.185593  
     122A      0.190530   123A      0.193831   124A      0.197613  
     125A      0.200084   126A      0.204284   127A      0.211567  
     128A      0.216462   129A      0.220216   130A      0.225363  
     131A      0.230849   132A      0.233429   133A      0.238212  
     134A      0.239855   135A      0.243366   136A      0.246721  
     137A      0.247776   138A      0.254482   139A      0.256549  
     140A      0.258933   141A      0.261963   142A      0.264385  
     143A      0.266115   144A      0.269499   145A      0.269849  
     146A      0.274865   147A      0.276632   148A      0.279674  
     149A      0.284794   150A      0.285191   151A      0.287408  
     152A      0.289998   153A      0.294569   154A      0.296723  
     155A      0.300262   156A      0.303675   157A      0.306962  
     158A      0.308424   159A      0.315630   160A      0.317324  
     161A      0.318675   162A      0.319982   163A      0.322604  
     164A      0.325298   165A      0.327980   166A      0.331652  
     167A      0.335746   168A      0.340830   169A      0.343662  
     170A      0.345258   171A      0.348760   172A      0.350658  
     173A      0.353152   174A      0.357219   175A      0.363537  
     176A      0.365148   177A      0.368939   178A      0.373840  
     179A      0.376137   180A      0.379660   181A      0.381556  
     182A      0.384317   183A      0.386392   184A      0.390516  
     185A      0.392287   186A      0.395002   187A      0.398845  
     188A      0.401441   189A      0.402798   190A      0.408005  
     191A      0.413524   192A      0.417356   193A      0.418650  
     194A      0.424125   195A      0.426358   196A      0.428851  
     197A      0.429889   198A      0.434035   199A      0.437541  
     200A      0.440362   201A      0.445336   202A      0.447808  
     203A      0.450164   204A      0.452976   205A      0.458915  
     206A      0.460580   207A      0.461586   208A      0.464078  
     209A      0.466196   210A      0.470005   211A      0.472479  
     212A      0.475800   213A      0.477088   214A      0.478577  
     215A      0.480939   216A      0.488166   217A      0.492139  
     218A      0.496735   219A      0.497764   220A      0.499731  
     221A      0.505886   222A      0.507242   223A      0.509891  
     224A      0.514111   225A      0.518690   226A      0.520952  
     227A      0.523730   228A      0.524915   229A      0.527055  
     230A      0.530317   231A      0.531746   232A      0.536211  
     233A      0.540326   234A      0.541340   235A      0.544894  
     236A      0.550721   237A      0.552164   238A      0.552758  
     239A      0.556824   240A      0.560639   241A      0.563556  
     242A      0.568331   243A      0.569613   244A      0.573504  
     245A      0.577159   246A      0.579511   247A      0.582501  
     248A      0.585922   249A      0.591362   250A      0.596782  
     251A      0.599959   252A      0.601042   253A      0.604526  
     254A      0.610150   255A      0.611498   256A      0.614290  
     257A      0.619571   258A      0.625381   259A      0.625816  
     260A      0.629651   261A      0.633783   262A      0.636175  
     263A      0.638877   264A      0.644823   265A      0.647742  
     266A      0.649282   267A      0.651729   268A      0.655249  
     269A      0.659028   270A      0.662183   271A      0.664127  
     272A      0.666949   273A      0.671074   274A      0.677353  
     275A      0.685015   276A      0.691623   277A      0.694704  
     278A      0.699733   279A      0.704806   280A      0.708666  
     281A      0.711632   282A      0.714958   283A      0.716790  
     284A      0.729316   285A      0.732953   286A      0.734368  
     287A      0.744065   288A      0.745882   289A      0.748732  
     290A      0.750495   291A      0.760699   292A      0.763817  
     293A      0.766548   294A      0.775429   295A      0.777495  
     296A      0.783959   297A      0.785042   298A      0.788410  
     299A      0.796477   300A      0.801391   301A      0.805053  
     302A      0.813082   303A      0.815746   304A      0.817823  
     305A      0.820352   306A      0.830971   307A      0.832352  
     308A      0.841744   309A      0.844336   310A      0.849457  
     311A      0.854023   312A      0.860541   313A      0.863268  
     314A      0.867125   315A      0.873486   316A      0.875976  
     317A      0.880414   318A      0.885663   319A      0.890107  
     320A      0.892296   321A      0.893448   322A      0.899672  
     323A      0.901170   324A      0.906235   325A      0.908058  
     326A      0.912980   327A      0.916822   328A      0.922312  
     329A      0.925732   330A      0.928386   331A      0.932909  
     332A      0.937822   333A      0.945009   334A      0.947980  
     335A      0.948898   336A      0.951682   337A      0.957713  
     338A      0.959316   339A      0.960885   340A      0.968048  
     341A      0.970418   342A      0.973359   343A      0.978409  
     344A      0.982507   345A      0.988264   346A      0.990009  
     347A      0.993174   348A      0.997341   349A      0.998676  
     350A      1.003112   351A      1.006966   352A      1.011425  
     353A      1.018443   354A      1.021346   355A      1.024680  
     356A      1.027456   357A      1.030840   358A      1.033701  
     359A      1.034904   360A      1.040841   361A      1.045297  
     362A      1.046659   363A      1.054292   364A      1.057957  
     365A      1.060813   366A      1.067150   367A      1.068630  
     368A      1.070977   369A      1.073766   370A      1.075245  
     371A      1.079410   372A      1.083314   373A      1.086876  
     374A      1.094615   375A      1.096287   376A      1.100801  
     377A      1.105112   378A      1.108283   379A      1.111258  
     380A      1.113478   381A      1.119104   382A      1.122302  
     383A      1.125023   384A      1.130260   385A      1.131289  
     386A      1.133854   387A      1.138446   388A      1.147148  
     389A      1.149385   390A      1.152143   391A      1.153725  
     392A      1.157030   393A      1.163113   394A      1.164667  
     395A      1.168629   396A      1.170337   397A      1.174878  
     398A      1.183635   399A      1.185367   400A      1.188157  
     401A      1.190947   402A      1.194805   403A      1.201061  
     404A      1.205279   405A      1.207703   406A      1.208006  
     407A      1.213465   408A      1.214514   409A      1.218346  
     410A      1.224544   411A      1.228388   412A      1.229989  
     413A      1.233189   414A      1.238874   415A      1.241154  
     416A      1.246429   417A      1.252979   418A      1.257420  
     419A      1.258652   420A      1.262202   421A      1.265862  
     422A      1.269686   423A      1.278073   424A      1.281461  
     425A      1.284633   426A      1.287350   427A      1.294268  
     428A      1.302950   429A      1.304628   430A      1.308838  
     431A      1.309282   432A      1.311465   433A      1.317909  
     434A      1.328048   435A      1.333173   436A      1.335854  
     437A      1.337544   438A      1.344856   439A      1.347930  
     440A      1.351168   441A      1.355700   442A      1.365517  
     443A      1.368289   444A      1.371733   445A      1.382291  
     446A      1.384517   447A      1.396239   448A      1.400826  
     449A      1.404416   450A      1.408180   451A      1.414032  
     452A      1.418272   453A      1.421305   454A      1.427262  
     455A      1.429636   456A      1.436599   457A      1.442871  
     458A      1.449773   459A      1.457106   460A      1.458650  
     461A      1.463882   462A      1.467062   463A      1.472250  
     464A      1.476369   465A      1.478710   466A      1.485300  
     467A      1.493355   468A      1.495278   469A      1.498749  
     470A      1.501117   471A      1.507788   472A      1.518195  
     473A      1.520475   474A      1.525739   475A      1.530299  
     476A      1.532592   477A      1.535649   478A      1.540551  
     479A      1.546825   480A      1.555554   481A      1.561500  
     482A      1.562539   483A      1.568898   484A      1.574420  
     485A      1.578672   486A      1.583919   487A      1.585591  
     488A      1.592758   489A      1.598017   490A      1.603948  
     491A      1.611488   492A      1.613389   493A      1.614427  
     494A      1.626988   495A      1.632342   496A      1.632822  
     497A      1.637504   498A      1.639914   499A      1.644931  
     500A      1.655822   501A      1.657507   502A      1.659295  
     503A      1.668587   504A      1.676613   505A      1.677561  
     506A      1.679191   507A      1.688553   508A      1.691109  
     509A      1.696772   510A      1.703529   511A      1.705662  
     512A      1.710011   513A      1.713968   514A      1.719257  
     515A      1.726201   516A      1.730826   517A      1.735028  
     518A      1.735822   519A      1.739024   520A      1.746134  
     521A      1.753303   522A      1.756770   523A      1.763771  
     524A      1.765204   525A      1.777372   526A      1.779181  
     527A      1.781944   528A      1.785675   529A      1.792919  
     530A      1.795550   531A      1.801010   532A      1.808903  
     533A      1.813082   534A      1.814767   535A      1.822283  
     536A      1.828506   537A      1.832923   538A      1.839954  
     539A      1.844251   540A      1.847744   541A      1.852411  
     542A      1.859355   543A      1.861670   544A      1.865797  
     545A      1.866999   546A      1.873508   547A      1.876667  
     548A      1.880208   549A      1.882456   550A      1.892229  
     551A      1.892913   552A      1.894657   553A      1.904653  
     554A      1.908176   555A      1.912714   556A      1.921252  
     557A      1.922385   558A      1.930008   559A      1.932794  
     560A      1.934011   561A      1.942551   562A      1.946267  
     563A      1.950112   564A      1.958160   565A      1.963674  
     566A      1.964341   567A      1.966699   568A      1.972925  
     569A      1.980253   570A      1.986278   571A      1.989074  
     572A      1.995229   573A      1.997334   574A      2.006355  
     575A      2.010372   576A      2.016998   577A      2.023145  
     578A      2.029334   579A      2.031318   580A      2.041248  
     581A      2.048201   582A      2.050104   583A      2.052136  
     584A      2.057022   585A      2.063893   586A      2.070690  
     587A      2.072722   588A      2.074148   589A      2.079870  
     590A      2.083954   591A      2.087008   592A      2.090849  
     593A      2.104475   594A      2.109244   595A      2.113095  
     596A      2.120216   597A      2.123419   598A      2.131059  
     599A      2.137673   600A      2.141709   601A      2.147235  
     602A      2.153536   603A      2.154686   604A      2.164147  
     605A      2.166303   606A      2.167390   607A      2.171649  
     608A      2.177898   609A      2.198278   610A      2.202463  
     611A      2.209732   612A      2.213524   613A      2.214452  
     614A      2.219230   615A      2.221053   616A      2.236201  
     617A      2.240755   618A      2.248757   619A      2.251140  
     620A      2.253263   621A      2.263634   622A      2.271676  
     623A      2.279692   624A      2.282640   625A      2.292250  
     626A      2.296962   627A      2.298084   628A      2.303145  
     629A      2.307752   630A      2.308682   631A      2.321819  
     632A      2.324147   633A      2.331215   634A      2.335038  
     635A      2.340237   636A      2.352887   637A      2.356618  
     638A      2.368044   639A      2.373692   640A      2.383531  
     641A      2.387001   642A      2.394476   643A      2.395366  
     644A      2.407651   645A      2.415281   646A      2.428518  
     647A      2.432655   648A      2.440284   649A      2.455827  
     650A      2.459318   651A      2.469419   652A      2.473898  
     653A      2.477494   654A      2.484505   655A      2.487266  
     656A      2.495290   657A      2.500685   658A      2.509524  
     659A      2.516989   660A      2.534162   661A      2.537645  
     662A      2.543846   663A      2.551890   664A      2.556708  
     665A      2.565639   666A      2.576307   667A      2.584761  
     668A      2.589961   669A      2.593517   670A      2.597661  
     671A      2.606826   672A      2.617355   673A      2.622780  
     674A      2.627831   675A      2.640103   676A      2.652677  
     677A      2.658096   678A      2.659187   679A      2.666083  
     680A      2.667423   681A      2.680722   682A      2.687927  
     683A      2.695462   684A      2.707901   685A      2.711600  
     686A      2.713172   687A      2.721437   688A      2.724949  
     689A      2.736006   690A      2.740224   691A      2.750849  
     692A      2.756713   693A      2.760322   694A      2.771038  
     695A      2.773207   696A      2.775021   697A      2.788764  
     698A      2.803542   699A      2.805072   700A      2.815742  
     701A      2.820569   702A      2.834840   703A      2.838401  
     704A      2.849381   705A      2.854603   706A      2.861741  
     707A      2.871478   708A      2.876090   709A      2.887328  
     710A      2.895203   711A      2.902606   712A      2.917315  
     713A      2.921130   714A      2.929990   715A      2.935378  
     716A      2.939641   717A      2.941039   718A      2.950599  
     719A      2.958151   720A      2.967561   721A      2.971202  
     722A      2.973919   723A      2.985770   724A      2.992567  
     725A      2.999327   726A      3.015265   727A      3.019548  
     728A      3.030077   729A      3.036915   730A      3.040749  
     731A      3.056389   732A      3.071935   733A      3.078113  
     734A      3.086025   735A      3.091040   736A      3.095342  
     737A      3.102032   738A      3.113147   739A      3.124508  
     740A      3.139541   741A      3.142818   742A      3.144205  
     743A      3.154810   744A      3.164921   745A      3.168342  
     746A      3.174675   747A      3.180203   748A      3.197577  
     749A      3.202397   750A      3.210908   751A      3.215167  
     752A      3.220162   753A      3.229803   754A      3.243492  
     755A      3.249462   756A      3.257015   757A      3.267929  
     758A      3.271090   759A      3.287143   760A      3.288577  
     761A      3.296233   762A      3.304114   763A      3.309586  
     764A      3.318671   765A      3.325158   766A      3.329232  
     767A      3.333012   768A      3.336304   769A      3.345850  
     770A      3.351998   771A      3.362157   772A      3.377554  
     773A      3.391756   774A      3.395430   775A      3.401738  
     776A      3.408279   777A      3.424471   778A      3.427727  
     779A      3.432451   780A      3.438326   781A      3.446623  
     782A      3.453166   783A      3.462053   784A      3.477651  
     785A      3.488460   786A      3.504040   787A      3.507475  
     788A      3.518798   789A      3.534540   790A      3.542600  
     791A      3.555032   792A      3.568470   793A      3.589458  
     794A      3.598177   795A      3.613762   796A      3.615082  
     797A      3.634233   798A      3.642280   799A      3.662169  
     800A      3.664619   801A      3.675166   802A      3.682410  
     803A      3.697635   804A      3.698402   805A      3.713939  
     806A      3.723886   807A      3.726726   808A      3.731188  
     809A      3.752367   810A      3.761963   811A      3.777536  
     812A      3.781037   813A      3.786670   814A      3.789136  
     815A      3.806552   816A      3.813971   817A      3.826352  
     818A      3.829651   819A      3.840705   820A      3.855198  
     821A      3.859091   822A      3.867767   823A      3.882216  
     824A      3.890414   825A      3.899132   826A      3.904454  
     827A      3.916912   828A      3.920789   829A      3.930837  
     830A      3.944722   831A      3.950723   832A      3.953964  
     833A      3.965262   834A      3.978134   835A      3.986168  
     836A      3.989505   837A      3.991668   838A      4.001618  
     839A      4.015430   840A      4.020817   841A      4.027593  
     842A      4.036821   843A      4.040971   844A      4.050277  
     845A      4.052463   846A      4.067333   847A      4.069852  
     848A      4.077953   849A      4.086475   850A      4.093038  
     851A      4.101906   852A      4.114117   853A      4.118475  
     854A      4.128059   855A      4.137090   856A      4.142402  
     857A      4.143723   858A      4.159038   859A      4.166242  
     860A      4.179337   861A      4.183865   862A      4.194153  
     863A      4.198620   864A      4.203860   865A      4.210077  
     866A      4.218656   867A      4.226662   868A      4.230202  
     869A      4.235914   870A      4.241763   871A      4.246894  
     872A      4.257988   873A      4.261726   874A      4.270309  
     875A      4.283921   876A      4.291918   877A      4.294964  
     878A      4.303431   879A      4.306637   880A      4.309369  
     881A      4.326666   882A      4.337114   883A      4.342298  
     884A      4.353025   885A      4.362226   886A      4.365319  
     887A      4.379632   888A      4.384144   889A      4.391997  
     890A      4.398051   891A      4.401789   892A      4.425955  
     893A      4.429003   894A      4.434712   895A      4.441150  
     896A      4.454153   897A      4.461455   898A      4.469884  
     899A      4.472402   900A      4.482845   901A      4.484648  
     902A      4.498830   903A      4.502689   904A      4.510640  
     905A      4.514072   906A      4.533621   907A      4.545009  
     908A      4.553621   909A      4.561901   910A      4.565020  
     911A      4.577109   912A      4.583725   913A      4.588287  
     914A      4.595818   915A      4.604274   916A      4.607745  
     917A      4.623529   918A      4.626516   919A      4.639611  
     920A      4.646179   921A      4.658740   922A      4.662599  
     923A      4.674478   924A      4.677187   925A      4.688740  
     926A      4.698172   927A      4.704056   928A      4.714609  
     929A      4.734819   930A      4.743021   931A      4.754872  
     932A      4.759791   933A      4.780139   934A      4.784161  
     935A      4.790167   936A      4.800147   937A      4.802193  
     938A      4.813755   939A      4.817942   940A      4.827244  
     941A      4.836490   942A      4.846592   943A      4.856935  
     944A      4.864606   945A      4.873796   946A      4.883726  
     947A      4.899470   948A      4.900419   949A      4.902599  
     950A      4.920244   951A      4.924235   952A      4.934327  
     953A      4.942844   954A      4.952768   955A      4.969797  
     956A      4.971220   957A      4.981569   958A      4.988083  
     959A      4.997618   960A      5.001051   961A      5.021572  
     962A      5.024043   963A      5.042031   964A      5.050498  
     965A      5.057852   966A      5.060999   967A      5.071704  
     968A      5.079099   969A      5.082557   970A      5.091036  
     971A      5.092285   972A      5.105095   973A      5.113759  
     974A      5.120935   975A      5.132198   976A      5.145308  
     977A      5.148628   978A      5.154429   979A      5.172578  
     980A      5.185613   981A      5.194870   982A      5.200984  
     983A      5.211333   984A      5.218677   985A      5.224441  
     986A      5.226926   987A      5.241503   988A      5.253984  
     989A      5.257349   990A      5.266939   991A      5.277123  
     992A      5.285235   993A      5.293264   994A      5.301487  
     995A      5.311750   996A      5.318446   997A      5.340478  
     998A      5.351550   999A      5.360117  1000A      5.365174  
    1001A      5.379976  1002A      5.387288  1003A      5.388463  
    1004A      5.402064  1005A      5.407236  1006A      5.415127  
    1007A      5.420959  1008A      5.427642  1009A      5.442835  
    1010A      5.448382  1011A      5.464829  1012A      5.474872  
    1013A      5.478583  1014A      5.481851  1015A      5.491066  
    1016A      5.500576  1017A      5.503521  1018A      5.523620  
    1019A      5.524745  1020A      5.528706  1021A      5.543329  
    1022A      5.555153  1023A      5.565301  1024A      5.573291  
    1025A      5.579760  1026A      5.598281  1027A      5.605126  
    1028A      5.614013  1029A      5.622840  1030A      5.630046  
    1031A      5.638211  1032A      5.649437  1033A      5.660794  
    1034A      5.674906  1035A      5.681766  1036A      5.692273  
    1037A      5.709470  1038A      5.719454  1039A      5.727543  
    1040A      5.739728  1041A      5.756912  1042A      5.761298  
    1043A      5.774982  1044A      5.782464  1045A      5.799018  
    1046A      5.817146  1047A      5.818640  1048A      5.826465  
    1049A      5.829236  1050A      5.851672  1051A      5.875127  
    1052A      5.884576  1053A      5.900429  1054A      5.912308  
    1055A      5.939197  1056A      5.944756  1057A      5.963384  
    1058A      6.031597  1059A      6.039924  1060A      6.045187  
    1061A      6.068247  1062A      6.075930  1063A      6.105546  
    1064A      6.120068  1065A      6.125144  1066A      6.141286  
    1067A      6.167853  1068A      6.191313  1069A      6.201996  
    1070A      6.223335  1071A      6.237417  1072A      6.279652  
    1073A      6.301830  1074A      6.334634  1075A      6.365454  
    1076A      6.383189  1077A      6.402715  1078A      6.413346  
    1079A      6.446596  1080A      6.474733  1081A      6.500032  
    1082A      6.511471  1083A      6.561658  1084A      6.719819  
    1085A      6.720788  1086A      6.740706  1087A      6.768052  
    1088A      6.775006  1089A      6.798102  1090A      6.807903  
    1091A      6.818580  1092A      6.832926  1093A      6.844861  
    1094A      6.846583  1095A      6.860619  1096A      6.870090  
    1097A      6.878812  1098A      6.885361  1099A      6.891576  
    1100A      6.911806  1101A      6.921118  1102A      6.937040  
    1103A      6.947166  1104A      6.959248  1105A      6.971893  
    1106A      6.980703  1107A      6.986532  1108A      7.006182  
    1109A      7.015953  1110A      7.022136  1111A      7.034626  
    1112A      7.038753  1113A      7.054495  1114A      7.062523  
    1115A      7.072108  1116A      7.080140  1117A      7.084199  
    1118A      7.105529  1119A      7.120446  1120A      7.127805  
    1121A      7.141916  1122A      7.153555  1123A      7.159196  
    1124A      7.177645  1125A      7.189026  1126A      7.193924  
    1127A      7.210316  1128A      7.216041  1129A      7.228909  
    1130A      7.236040  1131A      7.243021  1132A      7.279948  
    1133A      7.291940  1134A      7.305383  1135A      7.323193  
    1136A      7.329019  1137A      7.338932  1138A      7.350292  
    1139A      7.365699  1140A      7.372376  1141A      7.387668  
    1142A      7.388466  1143A      7.399396  1144A      7.406779  
    1145A      7.429132  1146A      7.431024  1147A      7.455571  
    1148A      7.461703  1149A      7.471565  1150A      7.482953  
    1151A      7.485958  1152A      7.503553  1153A      7.531465  
    1154A      7.540983  1155A      7.546232  1156A      7.565300  
    1157A      7.577254  1158A      7.592666  1159A      7.596589  
    1160A      7.615704  1161A      7.633194  1162A      7.641278  
    1163A      7.647848  1164A      7.666035  1165A      7.668813  
    1166A      7.694836  1167A      7.714270  1168A      7.726801  
    1169A      7.738825  1170A      7.764292  1171A      7.772984  
    1172A      7.798795  1173A      7.830818  1174A      7.841668  
    1175A      7.856789  1176A      7.872672  1177A      7.884653  
    1178A      7.901974  1179A      7.913912  1180A      7.926253  
    1181A      7.937197  1182A      7.950031  1183A      7.961300  
    1184A      7.989111  1185A      8.016108  1186A      8.095105  
    1187A      8.129192  1188A      8.136159  1189A      8.162397  
    1190A      8.167738  1191A      8.194696  1192A      8.218460  
    1193A      8.237978  1194A      8.284136  1195A      8.331351  
    1196A      8.357249  1197A      8.358731  1198A      8.373840  
    1199A      8.399650  1200A      8.404566  1201A      8.697242  
    1202A      8.708091  1203A      8.751968  1204A      8.779667  
    1205A      8.797122  1206A     11.882735  1207A     13.706797  
    1208A     15.376628  1209A     15.761065  1210A     16.813601  
    1211A     16.861583  1212A     17.210495  1213A     17.250261  
    1214A     17.558424  1215A     17.631432  1216A     18.083411  
    1217A     18.785610  1218A     19.191911  1219A     19.510549  
    1220A     19.539290  1221A     19.769786  1222A     20.018118  
    1223A     20.528042  

    Final Occupation by Irrep:
              A 
    DOCC [    76 ]

  @DF-RHF Final Energy: -1327.85726976903106

   => Energetics <=

    Nuclear Repulsion Energy =           1775.0760707018609992
    One-Electron Energy =               -5362.3154043109580016
    Two-Electron Energy =                2259.3820638400661664
    Total Energy =                      -1327.8572697690310633

Computation Completed

*** tstop() called on c445-132.stampede2.tacc.utexas.edu at Sun Mar 21 08:39:04 2021
Module time:
	user time   =    4932.00 seconds =      82.20 minutes
	system time =     101.01 seconds =       1.68 minutes
	total time  =        222 seconds =       3.70 minutes
Total time:
	user time   =    4932.00 seconds =      82.20 minutes
	system time =     101.01 seconds =       1.68 minutes
	total time  =        222 seconds =       3.70 minutes
   => Loading Basis Set <=

    Name: (AUG-CC-PVTZ AUX)
    Role: RIFIT
    Keyword: DF_BASIS_MP2
    atoms 1     entry P          line   590 file /home1/07844/xy3866/miniconda3/envs/p4env/share/psi4/basis/aug-cc-pvtz-ri.gbs 
    atoms 2-10  entry O          line   264 file /home1/07844/xy3866/miniconda3/envs/p4env/share/psi4/basis/aug-cc-pvtz-ri.gbs 
    atoms 11-18 entry C          line   148 file /home1/07844/xy3866/miniconda3/envs/p4env/share/psi4/basis/aug-cc-pvtz-ri.gbs 
    atoms 19-35 entry H          line    30 file /home1/07844/xy3866/miniconda3/envs/p4env/share/psi4/basis/aug-cc-pvtz-ri.gbs 


*** tstart() called on c445-132.stampede2.tacc.utexas.edu
*** at Sun Mar 21 08:39:06 2021


  //>>>>>>>>>>>>>>>>>>>>>>>>>>>>>>>>>>>//
  //               DFMP2               //
  //<<<<<<<<<<<<<<<<<<<<<<<<<<<<<<<<<<<//

	 --------------------------------------------------------
	                          DF-MP2                         
	      2nd-Order Density-Fitted Moller-Plesset Theory     
	              RMP2 Wavefunction,  32 Threads             
	                                                         
	        Rob Parrish, Justin Turney, Andy Simmonett,      
	           Ed Hohenstein, and C. David Sherrill          
	 --------------------------------------------------------

   => Auxiliary Basis Set <=

  Basis Set: (AUG-CC-PVTZ AUX)
    Blend: AUG-CC-PVTZ-RI
    Number of shells: 751
    Number of basis functions: 2731
    Number of Cartesian functions: 3438
    Spherical Harmonics?: true
    Max angular momentum: 4

	 --------------------------------------------------------
	                 NBF =  1223, NAUX =  2731
	 --------------------------------------------------------
	   CLASS    FOCC     OCC    AOCC    AVIR     VIR    FVIR
	   PAIRS       0      76      76    1147    1147       0
	 --------------------------------------------------------


         ------------------------------------------------------------
                                     CPHF                           
                                  Rob Parrish                       
         ------------------------------------------------------------

  ==> Geometry <==

    Molecular point group: c1
    Full point group: C1

    Geometry (in Angstrom), charge = 0, multiplicity = 1:

       Center              X                  Y                   Z               Mass       
    ------------   -----------------  -----------------  -----------------  -----------------
         P           -2.310333423977    -1.016884586219    -0.098314646687    30.973761998420
         O           -1.017003423977    -0.522913586219     0.753473353313    15.994914619570
         O            1.381124576023    -1.767526586219     1.218765353313    15.994914619570
         O           -0.147664423977     2.180690413781     0.519275353313    15.994914619570
         O            3.338484576023    -2.046384586219    -0.646857646687    15.994914619570
         O            2.584015576023     2.566440413781     0.635986353313    15.994914619570
         O            4.231882576023     0.680070413781    -0.637281646687    15.994914619570
         O           -2.862120423977     0.303789413781    -0.811150646687    15.994914619570
         O           -3.295016423977    -1.310274586219     1.151726353313    15.994914619570
         O           -2.092875423977    -2.142020586219    -1.036519646687    15.994914619570
         C            0.131609576023    -0.118917586219    -0.044670646687    12.000000000000
         C            1.081385576023    -1.313290586219    -0.106141646687    12.000000000000
         C            0.755747576023     1.084878413781     0.629346353313    12.000000000000
         C            2.430912576023    -0.947179586219    -0.708314646687    12.000000000000
         C            2.071881576023     1.424765413781    -0.048471646687    12.000000000000
         C            3.010005776023     0.218055513781    -0.019199546687    12.000000000000
         C           -3.235737423977     1.462588413781     0.001042353313    12.000000000000
         C           -3.196049423977     2.665671413781    -0.909041646687    12.000000000000
         H           -0.193152423977     0.170797413781    -1.052967646687     1.007825032230
         H            0.608081576023    -2.115533586219    -0.688110646687     1.007825032230
         H            0.948706576023     0.845738413781     1.684551353313     1.007825032230
         H            2.317050576023    -0.704293586219    -1.771910646687     1.007825032230
         H            1.874910576023     1.676164413781    -1.104310646687     1.007825032230
         H            3.225787576023    -0.002363586219     1.054695353313     1.007825032230
         H            0.524196576023    -1.966322586219     1.641141353313     1.007825032230
         H            0.371410576023     2.962726413781     0.791108353313     1.007825032230
         H            3.190970576023    -2.442880586219     0.234601353313     1.007825032230
         H            3.478836576023     2.713398413781     0.275571353313     1.007825032230
         H            4.775529576023    -0.126031586219    -0.725959646687     1.007825032230
         H           -3.775757423977    -2.143214586219     0.989375353313     1.007825032230
         H           -4.235889423977     1.272952413781     0.399113353313     1.007825032230
         H           -2.523709423977     1.570393413781     0.820258353313     1.007825032230
         H           -3.528630423977     3.552003413781    -0.360238646687     1.007825032230
         H           -2.174082423977     2.830709413781    -1.252664646687     1.007825032230
         H           -3.852137423977     2.520184413781    -1.769966646687     1.007825032230

  Nuclear repulsion = 1775.076070701860999
  Reference energy  = -1327.857269769031063

  ==> Basis Set <==

  Basis Set: AUG-CC-PVTZ
    Blend: AUG-CC-PVTZ
    Number of shells: 407
    Number of basis functions: 1223
    Number of Cartesian functions: 1419
    Spherical Harmonics?: true
    Max angular momentum: 3

  ==> CGRSolver (by Rob Parrish) <==

   Number of roots    =         1
   Preconditioning    =    JACOBI
   Convergence cutoff =     1E-06
   Maximum iterations =       100

  ==> CPHFRHamiltonian (by Rob Parrish) <== 

  ==> DiskDFJK: Density-Fitted J/K Matrices <==

    J tasked:                  Yes
    K tasked:                  Yes
    wK tasked:                  No
    OpenMP threads:             32
    Integrals threads:          32
    Memory [MiB]:            22888
    Algorithm:                Core
    Integral Cache:           NONE
    Schwarz Cutoff:          1E-12
    Fitting Condition:       1E-10

   => Auxiliary Basis Set <=

  Basis Set: (AUG-CC-PVTZ AUX)
    Blend: AUG-CC-PVTZ-JKFIT
    Number of shells: 790
    Number of basis functions: 2696
    Number of Cartesian functions: 3342
    Spherical Harmonics?: true
    Max angular momentum: 4

  ==> CPHF Iterations <==

  => Iterations <=

             Iter  Converged  Remaining    Residual
  CGR           1          0          1   8.112E-02
  CGR           2          0          1   1.849E-02
  CGR           3          0          1   7.174E-03
  CGR           4          0          1   2.046E-03
  CGR           5          0          1   6.908E-04
  CGR           6          0          1   1.992E-04
  CGR           7          0          1   6.867E-05
  CGR           8          0          1   2.244E-05
  CGR           9          0          1   7.502E-06
  CGR          10          0          1   2.626E-06
  CGR          11          1          0   7.358E-07

    CGRSolver converged.

	-----------------------------------------------------------
	 ==================> DF-MP2 Energies <==================== 
	-----------------------------------------------------------
	 Reference Energy          =   -1327.8572697690310633 [Eh]
	 Singles Energy            =      -0.0000000000000000 [Eh]
	 Same-Spin Energy          =      -1.0151748226059538 [Eh]
	 Opposite-Spin Energy      =      -3.0774510218052247 [Eh]
	 Correlation Energy        =      -4.0926258444111783 [Eh]
	 Total Energy              =   -1331.9498956134423224 [Eh]
	-----------------------------------------------------------
	 ================> DF-SCS-MP2 Energies <================== 
	-----------------------------------------------------------
	 SCS Same-Spin Scale       =       0.3333333333333333 [-]
	 SCS Opposite-Spin Scale   =       1.2000000000000000 [-]
	 SCS Same-Spin Energy      =      -0.3383916075353179 [Eh]
	 SCS Opposite-Spin Energy  =      -3.6929412261662695 [Eh]
	 SCS Correlation Energy    =      -4.0313328337015877 [Eh]
	 SCS Total Energy          =   -1331.8886026027325897 [Eh]
	-----------------------------------------------------------



Properties will be evaluated at   0.000000,   0.000000,   0.000000 [a0]

Properties computed using the MP2 density matrix

  Nuclear Dipole Moment: [e a0]
     X:     3.1034      Y:    10.8764      Z:    -0.6875

  Electronic Dipole Moment: [e a0]
     X:    -3.4651      Y:   -10.3249      Z:     1.4261

  Dipole Moment: [e a0]
     X:    -0.3616      Y:     0.5516      Z:     0.7387     Total:     0.9903

  Dipole Moment: [D]
     X:    -0.9192      Y:     1.4019      Z:     1.8775     Total:     2.5170


*** tstop() called on c445-132.stampede2.tacc.utexas.edu at Sun Mar 21 09:00:17 2021
Module time:
	user time   =   19161.05 seconds =     319.35 minutes
	system time =     163.42 seconds =       2.72 minutes
	total time  =       1271 seconds =      21.18 minutes
Total time:
	user time   =   24094.83 seconds =     401.58 minutes
	system time =     264.46 seconds =       4.41 minutes
	total time  =       1495 seconds =      24.92 minutes

    Psi4 stopped on: Sunday, 21 March 2021 09:00AM
    Psi4 wall time for execution: 0:24:59.91

*** Psi4 exiting successfully. Buy a developer a beer!
