
    -----------------------------------------------------------------------
          Psi4: An Open-Source Ab Initio Electronic Structure Package
                               Psi4 1.3.2 release

                         Git: Rev {HEAD} ecbda83 


    R. M. Parrish, L. A. Burns, D. G. A. Smith, A. C. Simmonett,
    A. E. DePrince III, E. G. Hohenstein, U. Bozkaya, A. Yu. Sokolov,
    R. Di Remigio, R. M. Richard, J. F. Gonthier, A. M. James,
    H. R. McAlexander, A. Kumar, M. Saitow, X. Wang, B. P. Pritchard,
    P. Verma, H. F. Schaefer III, K. Patkowski, R. A. King, E. F. Valeev,
    F. A. Evangelista, J. M. Turney, T. D. Crawford, and C. D. Sherrill,
    J. Chem. Theory Comput. 13(7) pp 3185--3197 (2017).
    (doi: 10.1021/acs.jctc.7b00174)


                         Additional Contributions by
    P. Kraus, H. Kruse, M. H. Lechner, M. C. Schieber, R. A. Shaw,
    A. Alenaizan, R. Galvelis, Z. L. Glick, S. Lehtola, and J. P. Misiewicz

    -----------------------------------------------------------------------


    Psi4 started on: Monday, 09 November 2020 10:14PM

    Process ID: 106540
    Host:       node92.bme.utexas.edu
    PSIDATADIR: /home/xy3866/psi4conda/share/psi4
    Memory:     500.0 MiB
    Threads:    8
    
  ==> Input File <==

--------------------------------------------------------------------------
#psi4
#
memory 32 gb

molecule  {
0 1
  P       -2.2900960    -0.9400430     0.3446780
  O       -0.9821530    -0.2015620     0.9382890
  O        1.3422500    -1.6754830     1.2308510
  O        0.0787050     2.3596040     0.4621680
  O        3.0685150    -2.1870720    -0.8085900
  O        2.8473350     2.5031130     0.3715350
  O        4.1956880     0.4353970    -0.9728740
  O       -2.8268630     0.0333510    -0.8075310
  O       -3.2591210    -0.7232820     1.6216710
  O       -2.1189930    -2.3436440    -0.0996680
  C        0.1181620     0.0300090     0.0163190
  C        0.9532920    -1.2442050    -0.0757250
  C        0.8576270     1.2176651     0.4984978
  C        2.2596600    -1.0143070    -0.8180370
  C        2.1770750     1.3964720    -0.2280410
  C        3.0258420     0.1487050    -0.2103220
  C       -3.1242130     1.4315980    -0.4888860
  C       -3.5363170     2.0851650    -1.7841190
  H       -0.2830920     0.2988010    -0.9702380
  H        0.3702690    -2.0293640    -0.5720320
  H        1.1571200     0.9978770     1.6121560
  H        2.0609340    -0.7886600    -1.8727560
  H        1.8612049     1.6324577    -1.2589881
  H        3.2958550    -0.0945320     0.8276460
  H        0.5217750    -1.8880320     1.7115100
  H        0.6655400     3.1093110     0.6831840
  H        2.9735430    -2.5473740     0.0946540
  H        3.7214290     2.5491860    -0.0588690
  H        4.6397270    -0.4238340    -1.0970870
  H       -3.8083950    -1.5223380     1.7347280
  H       -3.9305460     1.4455410     0.2493860
  H       -2.2297620     1.8928800    -0.0590960
  H       -3.8005210     3.1308820    -1.6026710
  H       -2.7171960     2.0533230    -2.5048750
  H       -4.4009440     1.5743230    -2.2127240
units angstrom
no_reorient  #important for SAPT in psi4, default
symmetry c1  #important for SAPT in psi4, default
}

set PROPERTIES_ORIGIN ["COM"]
properties('MP2/aug-cc-pvtz', properties = ['dipole'])
--------------------------------------------------------------------------

  Memory set to  29.802 GiB by Python driver.
    SCF Algorithm Type (re)set to DF.

*** tstart() called on node92.bme.utexas.edu
*** at Mon Nov  9 22:14:15 2020

   => Loading Basis Set <=

    Name: AUG-CC-PVTZ
    Role: ORBITAL
    Keyword: BASIS
    atoms 1     entry P          line   820 file /home/xy3866/psi4conda/share/psi4/basis/aug-cc-pvtz.gbs 
    atoms 2-10  entry O          line   327 file /home/xy3866/psi4conda/share/psi4/basis/aug-cc-pvtz.gbs 
    atoms 11-18 entry C          line   235 file /home/xy3866/psi4conda/share/psi4/basis/aug-cc-pvtz.gbs 
    atoms 19-35 entry H          line    36 file /home/xy3866/psi4conda/share/psi4/basis/aug-cc-pvtz.gbs 


         ---------------------------------------------------------
                                   SCF
               by Justin Turney, Rob Parrish, Andy Simmonett
                          and Daniel G. A. Smith
                              RHF Reference
                        8 Threads,  30517 MiB Core
         ---------------------------------------------------------

  ==> Geometry <==

    Molecular point group: c1
    Full point group: C1

    Geometry (in Angstrom), charge = 0, multiplicity = 1:

       Center              X                  Y                   Z               Mass       
    ------------   -----------------  -----------------  -----------------  -----------------
         P           -2.288194416590    -0.940655331529     0.347391059330    30.973761998420
         O           -0.980251416590    -0.202174331529     0.941002059330    15.994914619570
         O            1.344151583410    -1.676095331529     1.233564059330    15.994914619570
         O            0.080606583410     2.358991668471     0.464881059330    15.994914619570
         O            3.070416583410    -2.187684331529    -0.805876940670    15.994914619570
         O            2.849236583410     2.502500668471     0.374248059330    15.994914619570
         O            4.197589583410     0.434784668471    -0.970160940670    15.994914619570
         O           -2.824961416590     0.032738668471    -0.804817940670    15.994914619570
         O           -3.257219416590    -0.723894331529     1.624384059330    15.994914619570
         O           -2.117091416590    -2.344256331529    -0.096954940670    15.994914619570
         C            0.120063583410     0.029396668471     0.019032059330    12.000000000000
         C            0.955193583410    -1.244817331529    -0.073011940670    12.000000000000
         C            0.859528583410     1.217052768471     0.501210859330    12.000000000000
         C            2.261561583410    -1.014919331529    -0.815323940670    12.000000000000
         C            2.178976583410     1.395859668471    -0.225327940670    12.000000000000
         C            3.027743583410     0.148092668471    -0.207608940670    12.000000000000
         C           -3.122311416590     1.430985668471    -0.486172940670    12.000000000000
         C           -3.534415416590     2.084552668471    -1.781405940670    12.000000000000
         H           -0.281190416590     0.298188668471    -0.967524940670     1.007825032230
         H            0.372170583410    -2.029976331529    -0.569318940670     1.007825032230
         H            1.159021583410     0.997264668471     1.614869059330     1.007825032230
         H            2.062835583410    -0.789272331529    -1.870042940670     1.007825032230
         H            1.863106483410     1.631845368471    -1.256275040670     1.007825032230
         H            3.297756583410    -0.095144331529     0.830359059330     1.007825032230
         H            0.523676583410    -1.888644331529     1.714223059330     1.007825032230
         H            0.667441583410     3.108698668471     0.685897059330     1.007825032230
         H            2.975444583410    -2.547986331529     0.097367059330     1.007825032230
         H            3.723330583410     2.548573668471    -0.056155940670     1.007825032230
         H            4.641628583410    -0.424446331529    -1.094373940670     1.007825032230
         H           -3.806493416590    -1.522950331529     1.737441059330     1.007825032230
         H           -3.928644416590     1.444928668471     0.252099059330     1.007825032230
         H           -2.227860416590     1.892267668471    -0.056382940670     1.007825032230
         H           -3.798619416590     3.130269668471    -1.599957940670     1.007825032230
         H           -2.715294416590     2.052710668471    -2.502161940670     1.007825032230
         H           -4.399042416590     1.573710668471    -2.210010940670     1.007825032230

  Running in c1 symmetry.

  Rotational constants: A =      0.01976  B =      0.00843  C =      0.00687 [cm^-1]
  Rotational constants: A =    592.41047  B =    252.81573  C =    205.94128 [MHz]
  Nuclear repulsion = 1773.314311842655343

  Charge       = 0
  Multiplicity = 1
  Electrons    = 152
  Nalpha       = 76
  Nbeta        = 76

  ==> Algorithm <==

  SCF Algorithm Type is DF.
  DIIS enabled.
  MOM disabled.
  Fractional occupation disabled.
  Guess Type is SAD.
  Energy threshold   = 1.00e-10
  Density threshold  = 1.00e-10
  Integral threshold = 0.00e+00

  ==> Primary Basis <==

  Basis Set: AUG-CC-PVTZ
    Blend: AUG-CC-PVTZ
    Number of shells: 407
    Number of basis function: 1223
    Number of Cartesian functions: 1419
    Spherical Harmonics?: true
    Max angular momentum: 3

   => Loading Basis Set <=

    Name: (AUG-CC-PVTZ AUX)
    Role: JKFIT
    Keyword: DF_BASIS_SCF
    atoms 1     entry P          line   644 file /home/xy3866/psi4conda/share/psi4/basis/aug-cc-pvtz-jkfit.gbs 
    atoms 2-10  entry O          line   286 file /home/xy3866/psi4conda/share/psi4/basis/aug-cc-pvtz-jkfit.gbs 
    atoms 11-18 entry C          line   162 file /home/xy3866/psi4conda/share/psi4/basis/aug-cc-pvtz-jkfit.gbs 
    atoms 19-35 entry H          line    70 file /home/xy3866/psi4conda/share/psi4/basis/aug-cc-pvtz-jkfit.gbs 

  ==> Pre-Iterations <==

   -------------------------------------------------------
    Irrep   Nso     Nmo     Nalpha   Nbeta   Ndocc  Nsocc
   -------------------------------------------------------
     A       1223    1223       0       0       0       0
   -------------------------------------------------------
    Total    1223    1223      76      76      76       0
   -------------------------------------------------------

  ==> Integral Setup <==

  ==> DiskDFJK: Density-Fitted J/K Matrices <==

    J tasked:                  Yes
    K tasked:                  Yes
    wK tasked:                  No
    OpenMP threads:              8
    Integrals threads:           8
    Memory [MiB]:            22888
    Algorithm:                Core
    Integral Cache:           NONE
    Schwarz Cutoff:          1E-12
    Fitting Condition:       1E-10

   => Auxiliary Basis Set <=

  Basis Set: (AUG-CC-PVTZ AUX)
    Blend: AUG-CC-PVTZ-JKFIT
    Number of shells: 790
    Number of basis function: 2696
    Number of Cartesian functions: 3342
    Spherical Harmonics?: true
    Max angular momentum: 4

  Minimum eigenvalue in the overlap matrix is 6.8800647975E-07.
  Using Symmetric Orthogonalization.

  SCF Guess: Superposition of Atomic Densities via on-the-fly atomic UHF.

  ==> Iterations <==

                           Total Energy        Delta E     RMS |[F,P]|

   @DF-RHF iter SAD: -1327.24625277650966   -1.32725e+03   0.00000e+00 
   @DF-RHF iter   1: -1327.24379930904388    2.45347e-03   9.36787e-04 DIIS
   @DF-RHF iter   2: -1327.70286840427320   -4.59069e-01   5.37409e-04 DIIS
   @DF-RHF iter   3: -1327.84574134304694   -1.42873e-01   9.07267e-05 DIIS
   @DF-RHF iter   4: -1327.85288953922895   -7.14820e-03   3.50767e-05 DIIS
   @DF-RHF iter   5: -1327.85377685373010   -8.87315e-04   8.10811e-06 DIIS
   @DF-RHF iter   6: -1327.85383736126437   -6.05075e-05   2.55498e-06 DIIS
   @DF-RHF iter   7: -1327.85384475232308   -7.39106e-06   8.36194e-07 DIIS
   @DF-RHF iter   8: -1327.85384562755553   -8.75232e-07   2.56132e-07 DIIS
   @DF-RHF iter   9: -1327.85384571655504   -8.89995e-08   8.18491e-08 DIIS
   @DF-RHF iter  10: -1327.85384572512976   -8.57472e-09   2.53445e-08 DIIS
   @DF-RHF iter  11: -1327.85384572584871   -7.18956e-10   7.85854e-09 DIIS
   @DF-RHF iter  12: -1327.85384572590601   -5.72982e-11   2.36334e-09 DIIS
   @DF-RHF iter  13: -1327.85384572593216   -2.61480e-11   7.44668e-10 DIIS
   @DF-RHF iter  14: -1327.85384572590760    2.45564e-11   3.05282e-10 DIIS
   @DF-RHF iter  15: -1327.85384572592420   -1.65983e-11   9.83137e-11 DIIS
  Energy and wave function converged.


  ==> Post-Iterations <==

    Orbital Energies [Eh]
    ---------------------

    Doubly Occupied:                                                      

       1A    -80.117289     2A    -20.614986     3A    -20.607589  
       4A    -20.599276     5A    -20.582439     6A    -20.578472  
       7A    -20.577357     8A    -20.574559     9A    -20.573965  
      10A    -20.523644    11A    -11.320112    12A    -11.304794  
      13A    -11.300863    14A    -11.300162    15A    -11.299371  
      16A    -11.296984    17A    -11.292260    18A    -11.230467  
      19A     -7.632732    20A     -5.531234    21A     -5.530872  
      22A     -5.529663    23A     -1.460855    24A     -1.413355  
      25A     -1.398891    26A     -1.394728    27A     -1.387337  
      28A     -1.376517    29A     -1.366994    30A     -1.354904  
      31A     -1.304074    32A     -1.121370    33A     -1.041115  
      34A     -1.014780    35A     -1.003635    36A     -0.882009  
      37A     -0.866089    38A     -0.858370    39A     -0.824267  
      40A     -0.806846    41A     -0.754975    42A     -0.744817  
      43A     -0.732237    44A     -0.729655    45A     -0.708618  
      46A     -0.690188    47A     -0.677975    48A     -0.674159  
      49A     -0.663809    50A     -0.661481    51A     -0.645984  
      52A     -0.636948    53A     -0.628100    54A     -0.616927  
      55A     -0.605122    56A     -0.598216    57A     -0.584397  
      58A     -0.575878    59A     -0.571282    60A     -0.560719  
      61A     -0.557354    62A     -0.549417    63A     -0.541603  
      64A     -0.537469    65A     -0.530371    66A     -0.522707  
      67A     -0.512932    68A     -0.503346    69A     -0.496799  
      70A     -0.482754    71A     -0.480485    72A     -0.476975  
      73A     -0.460319    74A     -0.458011    75A     -0.437336  
      76A     -0.436681  

    Virtual:                                                              

      77A      0.024225    78A      0.029438    79A      0.032348  
      80A      0.035242    81A      0.041432    82A      0.043370  
      83A      0.046610    84A      0.052032    85A      0.054309  
      86A      0.059642    87A      0.062202    88A      0.064340  
      89A      0.072266    90A      0.074161    91A      0.076328  
      92A      0.087412    93A      0.090491    94A      0.093157  
      95A      0.103822    96A      0.105302    97A      0.111654  
      98A      0.115412    99A      0.117550   100A      0.120221  
     101A      0.120987   102A      0.125838   103A      0.127442  
     104A      0.131008   105A      0.133865   106A      0.140827  
     107A      0.143648   108A      0.144903   109A      0.148804  
     110A      0.150512   111A      0.153725   112A      0.154386  
     113A      0.157854   114A      0.161744   115A      0.164603  
     116A      0.168805   117A      0.171434   118A      0.173644  
     119A      0.177161   120A      0.177944   121A      0.181763  
     122A      0.190199   123A      0.193213   124A      0.196820  
     125A      0.207091   126A      0.209666   127A      0.214340  
     128A      0.219013   129A      0.220726   130A      0.224241  
     131A      0.229715   132A      0.233747   133A      0.234864  
     134A      0.237908   135A      0.242344   136A      0.244459  
     137A      0.245709   138A      0.250989   139A      0.255028  
     140A      0.256768   141A      0.258499   142A      0.260165  
     143A      0.263364   144A      0.267035   145A      0.270263  
     146A      0.272440   147A      0.277883   148A      0.278083  
     149A      0.281723   150A      0.286124   151A      0.290165  
     152A      0.292948   153A      0.295811   154A      0.297579  
     155A      0.300235   156A      0.300786   157A      0.309420  
     158A      0.311817   159A      0.312021   160A      0.313106  
     161A      0.318730   162A      0.322347   163A      0.323804  
     164A      0.329104   165A      0.330797   166A      0.335053  
     167A      0.337674   168A      0.339059   169A      0.340985  
     170A      0.348308   171A      0.349960   172A      0.355524  
     173A      0.357973   174A      0.358659   175A      0.361506  
     176A      0.362197   177A      0.368008   178A      0.372709  
     179A      0.375262   180A      0.379564   181A      0.383397  
     182A      0.385612   183A      0.388963   184A      0.392190  
     185A      0.393007   186A      0.393139   187A      0.397661  
     188A      0.398651   189A      0.403029   190A      0.406233  
     191A      0.408190   192A      0.414822   193A      0.419408  
     194A      0.423006   195A      0.426643   196A      0.429867  
     197A      0.430949   198A      0.434756   199A      0.438893  
     200A      0.440081   201A      0.443958   202A      0.446820  
     203A      0.448151   204A      0.452699   205A      0.453878  
     206A      0.456449   207A      0.460780   208A      0.461720  
     209A      0.467129   210A      0.470834   211A      0.472831  
     212A      0.473277   213A      0.476124   214A      0.477551  
     215A      0.484530   216A      0.486661   217A      0.489314  
     218A      0.493940   219A      0.496091   220A      0.498470  
     221A      0.498878   222A      0.503841   223A      0.507007  
     224A      0.510736   225A      0.514284   226A      0.521054  
     227A      0.522421   228A      0.524232   229A      0.529154  
     230A      0.530815   231A      0.531699   232A      0.535423  
     233A      0.542355   234A      0.546447   235A      0.547522  
     236A      0.548906   237A      0.552392   238A      0.555496  
     239A      0.558710   240A      0.559936   241A      0.562232  
     242A      0.567825   243A      0.568618   244A      0.571989  
     245A      0.574847   246A      0.579789   247A      0.581077  
     248A      0.587279   249A      0.590328   250A      0.590676  
     251A      0.597411   252A      0.597990   253A      0.603192  
     254A      0.607085   255A      0.609926   256A      0.611349  
     257A      0.615472   258A      0.618415   259A      0.625831  
     260A      0.627444   261A      0.632587   262A      0.634599  
     263A      0.638210   264A      0.644121   265A      0.647526  
     266A      0.648918   267A      0.653715   268A      0.656507  
     269A      0.660535   270A      0.667562   271A      0.672440  
     272A      0.673602   273A      0.676891   274A      0.677726  
     275A      0.687015   276A      0.687868   277A      0.692935  
     278A      0.696278   279A      0.705450   280A      0.708326  
     281A      0.710566   282A      0.716397   283A      0.724288  
     284A      0.727526   285A      0.732273   286A      0.737535  
     287A      0.739152   288A      0.744734   289A      0.746840  
     290A      0.750761   291A      0.756893   292A      0.758490  
     293A      0.772793   294A      0.776934   295A      0.779615  
     296A      0.781296   297A      0.790345   298A      0.794247  
     299A      0.802018   300A      0.805487   301A      0.808668  
     302A      0.811884   303A      0.819872   304A      0.823638  
     305A      0.826556   306A      0.828306   307A      0.838035  
     308A      0.842936   309A      0.844684   310A      0.846542  
     311A      0.850036   312A      0.854204   313A      0.855681  
     314A      0.862133   315A      0.868115   316A      0.877438  
     317A      0.878759   318A      0.884021   319A      0.886448  
     320A      0.889849   321A      0.897983   322A      0.901978  
     323A      0.904801   324A      0.907405   325A      0.909097  
     326A      0.912120   327A      0.917210   328A      0.919884  
     329A      0.923381   330A      0.930414   331A      0.934660  
     332A      0.936714   333A      0.938609   334A      0.943542  
     335A      0.945951   336A      0.950933   337A      0.954075  
     338A      0.956028   339A      0.960364   340A      0.966647  
     341A      0.968936   342A      0.972419   343A      0.976413  
     344A      0.981805   345A      0.984968   346A      0.990439  
     347A      0.994382   348A      0.997474   349A      1.000209  
     350A      1.002628   351A      1.005555   352A      1.008810  
     353A      1.014632   354A      1.016269   355A      1.020438  
     356A      1.023658   357A      1.030547   358A      1.032464  
     359A      1.040710   360A      1.043650   361A      1.048288  
     362A      1.052313   363A      1.054461   364A      1.058529  
     365A      1.061825   366A      1.062969   367A      1.068348  
     368A      1.074183   369A      1.074590   370A      1.078963  
     371A      1.082697   372A      1.087734   373A      1.089198  
     374A      1.090149   375A      1.097800   376A      1.100289  
     377A      1.100859   378A      1.107789   379A      1.109933  
     380A      1.110581   381A      1.115468   382A      1.119837  
     383A      1.126910   384A      1.128849   385A      1.131960  
     386A      1.136392   387A      1.139973   388A      1.143015  
     389A      1.146167   390A      1.147189   391A      1.152424  
     392A      1.159589   393A      1.163606   394A      1.164923  
     395A      1.170850   396A      1.172331   397A      1.177196  
     398A      1.180880   399A      1.181432   400A      1.187333  
     401A      1.188524   402A      1.194807   403A      1.198275  
     404A      1.201400   405A      1.205905   406A      1.209539  
     407A      1.213063   408A      1.214714   409A      1.216058  
     410A      1.224594   411A      1.227905   412A      1.230956  
     413A      1.232195   414A      1.240145   415A      1.241829  
     416A      1.247010   417A      1.250704   418A      1.252263  
     419A      1.257074   420A      1.261788   421A      1.267952  
     422A      1.269710   423A      1.277623   424A      1.278486  
     425A      1.283623   426A      1.285565   427A      1.295127  
     428A      1.296321   429A      1.303664   430A      1.307656  
     431A      1.312254   432A      1.313718   433A      1.315658  
     434A      1.324281   435A      1.327719   436A      1.334934  
     437A      1.337991   438A      1.348476   439A      1.349885  
     440A      1.362348   441A      1.366897   442A      1.368829  
     443A      1.374824   444A      1.376810   445A      1.379122  
     446A      1.388261   447A      1.391939   448A      1.393371  
     449A      1.396671   450A      1.399156   451A      1.408320  
     452A      1.413392   453A      1.422805   454A      1.425077  
     455A      1.429019   456A      1.433851   457A      1.439823  
     458A      1.445412   459A      1.447260   460A      1.458024  
     461A      1.464832   462A      1.468793   463A      1.471245  
     464A      1.472751   465A      1.479812   466A      1.482726  
     467A      1.493196   468A      1.502393   469A      1.505265  
     470A      1.507245   471A      1.513838   472A      1.518375  
     473A      1.521117   474A      1.526304   475A      1.529205  
     476A      1.535481   477A      1.540966   478A      1.543365  
     479A      1.549941   480A      1.551423   481A      1.560873  
     482A      1.566234   483A      1.570967   484A      1.575487  
     485A      1.578230   486A      1.582184   487A      1.589452  
     488A      1.591171   489A      1.601650   490A      1.608020  
     491A      1.615576   492A      1.618088   493A      1.619786  
     494A      1.623006   495A      1.629182   496A      1.634868  
     497A      1.638975   498A      1.643040   499A      1.647872  
     500A      1.652779   501A      1.656168   502A      1.663538  
     503A      1.670745   504A      1.673579   505A      1.678744  
     506A      1.682276   507A      1.684436   508A      1.688928  
     509A      1.695040   510A      1.696978   511A      1.706470  
     512A      1.711209   513A      1.717644   514A      1.722482  
     515A      1.725355   516A      1.727795   517A      1.729129  
     518A      1.731816   519A      1.735429   520A      1.740826  
     521A      1.745773   522A      1.751274   523A      1.755351  
     524A      1.760863   525A      1.763353   526A      1.771946  
     527A      1.774844   528A      1.779367   529A      1.787399  
     530A      1.789310   531A      1.800036   532A      1.803323  
     533A      1.805889   534A      1.814901   535A      1.816474  
     536A      1.820348   537A      1.829960   538A      1.834889  
     539A      1.840242   540A      1.842483   541A      1.846980  
     542A      1.849831   543A      1.855790   544A      1.862201  
     545A      1.867643   546A      1.871502   547A      1.875075  
     548A      1.876983   549A      1.880418   550A      1.885564  
     551A      1.888683   552A      1.895643   553A      1.902740  
     554A      1.903625   555A      1.910654   556A      1.915720  
     557A      1.919906   558A      1.926178   559A      1.928769  
     560A      1.933246   561A      1.936712   562A      1.940914  
     563A      1.947368   564A      1.950066   565A      1.959518  
     566A      1.964670   567A      1.973792   568A      1.977561  
     569A      1.978173   570A      1.980177   571A      1.983938  
     572A      1.993535   573A      1.996246   574A      2.003093  
     575A      2.007191   576A      2.009242   577A      2.014848  
     578A      2.019076   579A      2.026130   580A      2.026924  
     581A      2.033965   582A      2.038440   583A      2.044503  
     584A      2.049837   585A      2.058232   586A      2.065459  
     587A      2.069358   588A      2.073017   589A      2.081709  
     590A      2.085360   591A      2.087906   592A      2.094766  
     593A      2.100869   594A      2.108306   595A      2.110902  
     596A      2.119183   597A      2.121507   598A      2.127721  
     599A      2.128906   600A      2.140739   601A      2.148390  
     602A      2.158766   603A      2.162331   604A      2.165073  
     605A      2.169938   606A      2.171494   607A      2.179255  
     608A      2.187686   609A      2.192556   610A      2.195279  
     611A      2.199382   612A      2.210016   613A      2.218202  
     614A      2.224560   615A      2.229421   616A      2.241270  
     617A      2.242614   618A      2.247854   619A      2.250761  
     620A      2.257953   621A      2.262400   622A      2.267249  
     623A      2.268398   624A      2.277713   625A      2.280033  
     626A      2.286387   627A      2.296851   628A      2.304279  
     629A      2.310086   630A      2.316148   631A      2.319374  
     632A      2.321086   633A      2.329373   634A      2.336460  
     635A      2.343648   636A      2.351759   637A      2.360117  
     638A      2.365236   639A      2.382974   640A      2.383909  
     641A      2.389728   642A      2.406799   643A      2.412932  
     644A      2.420277   645A      2.429046   646A      2.432942  
     647A      2.437930   648A      2.440325   649A      2.445725  
     650A      2.446764   651A      2.459465   652A      2.468073  
     653A      2.476668   654A      2.484556   655A      2.490567  
     656A      2.502896   657A      2.508238   658A      2.516257  
     659A      2.522644   660A      2.530088   661A      2.537250  
     662A      2.545139   663A      2.548133   664A      2.553062  
     665A      2.567954   666A      2.579052   667A      2.586860  
     668A      2.590171   669A      2.596022   670A      2.598874  
     671A      2.607756   672A      2.616793   673A      2.625946  
     674A      2.632450   675A      2.642520   676A      2.645636  
     677A      2.649922   678A      2.660195   679A      2.665090  
     680A      2.673173   681A      2.686528   682A      2.687769  
     683A      2.693174   684A      2.697466   685A      2.706552  
     686A      2.716428   687A      2.723961   688A      2.727180  
     689A      2.734893   690A      2.746177   691A      2.749756  
     692A      2.757678   693A      2.769434   694A      2.782338  
     695A      2.786870   696A      2.792731   697A      2.797480  
     698A      2.802254   699A      2.809614   700A      2.813362  
     701A      2.817601   702A      2.825901   703A      2.839511  
     704A      2.853045   705A      2.865933   706A      2.866765  
     707A      2.876834   708A      2.885436   709A      2.887330  
     710A      2.898122   711A      2.908393   712A      2.915839  
     713A      2.918607   714A      2.922705   715A      2.942167  
     716A      2.948265   717A      2.957487   718A      2.965973  
     719A      2.973501   720A      2.977621   721A      2.985675  
     722A      2.989751   723A      2.998982   724A      3.002199  
     725A      3.007751   726A      3.010314   727A      3.024094  
     728A      3.033176   729A      3.051678   730A      3.057911  
     731A      3.062031   732A      3.065913   733A      3.075041  
     734A      3.087080   735A      3.101337   736A      3.106641  
     737A      3.111454   738A      3.118754   739A      3.126337  
     740A      3.133969   741A      3.140568   742A      3.147512  
     743A      3.152820   744A      3.161354   745A      3.167486  
     746A      3.170548   747A      3.191016   748A      3.197364  
     749A      3.201465   750A      3.208444   751A      3.210401  
     752A      3.224354   753A      3.228032   754A      3.238356  
     755A      3.254715   756A      3.259476   757A      3.269594  
     758A      3.277337   759A      3.283369   760A      3.290533  
     761A      3.292588   762A      3.304180   763A      3.309576  
     764A      3.313945   765A      3.321579   766A      3.329782  
     767A      3.341561   768A      3.345837   769A      3.356251  
     770A      3.361928   771A      3.370512   772A      3.377864  
     773A      3.381672   774A      3.387120   775A      3.399426  
     776A      3.410443   777A      3.415851   778A      3.427236  
     779A      3.434880   780A      3.442219   781A      3.454996  
     782A      3.460325   783A      3.480034   784A      3.487812  
     785A      3.499747   786A      3.515744   787A      3.517576  
     788A      3.523850   789A      3.529468   790A      3.551074  
     791A      3.558197   792A      3.576178   793A      3.583201  
     794A      3.594120   795A      3.599910   796A      3.622802  
     797A      3.627015   798A      3.637981   799A      3.649873  
     800A      3.654580   801A      3.674289   802A      3.682627  
     803A      3.689524   804A      3.699280   805A      3.704133  
     806A      3.720930   807A      3.730952   808A      3.732415  
     809A      3.743228   810A      3.750521   811A      3.758636  
     812A      3.767730   813A      3.777880   814A      3.786940  
     815A      3.800014   816A      3.811276   817A      3.824661  
     818A      3.833674   819A      3.842815   820A      3.851811  
     821A      3.853394   822A      3.865227   823A      3.871225  
     824A      3.876432   825A      3.882445   826A      3.897865  
     827A      3.910095   828A      3.920483   829A      3.925949  
     830A      3.928433   831A      3.950206   832A      3.955377  
     833A      3.967993   834A      3.970070   835A      3.976730  
     836A      3.985703   837A      3.993822   838A      3.998912  
     839A      4.008347   840A      4.015477   841A      4.024905  
     842A      4.035424   843A      4.040710   844A      4.047353  
     845A      4.065660   846A      4.066956   847A      4.075412  
     848A      4.081065   849A      4.088104   850A      4.102080  
     851A      4.106626   852A      4.110287   853A      4.116708  
     854A      4.133354   855A      4.133653   856A      4.142718  
     857A      4.150518   858A      4.164161   859A      4.171950  
     860A      4.176442   861A      4.182693   862A      4.186161  
     863A      4.189774   864A      4.198896   865A      4.204354  
     866A      4.214961   867A      4.227114   868A      4.231436  
     869A      4.240525   870A      4.244488   871A      4.251022  
     872A      4.257608   873A      4.262452   874A      4.276319  
     875A      4.278224   876A      4.286534   877A      4.293284  
     878A      4.305135   879A      4.310928   880A      4.314084  
     881A      4.324533   882A      4.334592   883A      4.337345  
     884A      4.346927   885A      4.361904   886A      4.371692  
     887A      4.373380   888A      4.380549   889A      4.390800  
     890A      4.399655   891A      4.408569   892A      4.416056  
     893A      4.422242   894A      4.431527   895A      4.451664  
     896A      4.453975   897A      4.458649   898A      4.463391  
     899A      4.469871   900A      4.485798   901A      4.497142  
     902A      4.500187   903A      4.503518   904A      4.512966  
     905A      4.518044   906A      4.532168   907A      4.537584  
     908A      4.547936   909A      4.556051   910A      4.568618  
     911A      4.578135   912A      4.582671   913A      4.592498  
     914A      4.598834   915A      4.603396   916A      4.616022  
     917A      4.619779   918A      4.630323   919A      4.645211  
     920A      4.655132   921A      4.662102   922A      4.665733  
     923A      4.669723   924A      4.683807   925A      4.693082  
     926A      4.698272   927A      4.712771   928A      4.720559  
     929A      4.729414   930A      4.744064   931A      4.747995  
     932A      4.754256   933A      4.770015   934A      4.777347  
     935A      4.786020   936A      4.793311   937A      4.801627  
     938A      4.816379   939A      4.817856   940A      4.833306  
     941A      4.838435   942A      4.844384   943A      4.846525  
     944A      4.858592   945A      4.872095   946A      4.878904  
     947A      4.890904   948A      4.892576   949A      4.898644  
     950A      4.910615   951A      4.921633   952A      4.926168  
     953A      4.935005   954A      4.955377   955A      4.968250  
     956A      4.978169   957A      4.988423   958A      4.992806  
     959A      4.995181   960A      5.010711   961A      5.022324  
     962A      5.028828   963A      5.040619   964A      5.054207  
     965A      5.058110   966A      5.062366   967A      5.070650  
     968A      5.077867   969A      5.088361   970A      5.091308  
     971A      5.100320   972A      5.113586   973A      5.115447  
     974A      5.128552   975A      5.130671   976A      5.144122  
     977A      5.146184   978A      5.161096   979A      5.168022  
     980A      5.179256   981A      5.187861   982A      5.197747  
     983A      5.213448   984A      5.215343   985A      5.227166  
     986A      5.240459   987A      5.248154   988A      5.256543  
     989A      5.264365   990A      5.275474   991A      5.277319  
     992A      5.283048   993A      5.298165   994A      5.314222  
     995A      5.316244   996A      5.322950   997A      5.326301  
     998A      5.343485   999A      5.353740  1000A      5.358032  
    1001A      5.364603  1002A      5.373604  1003A      5.380553  
    1004A      5.384412  1005A      5.401118  1006A      5.404047  
    1007A      5.412390  1008A      5.433223  1009A      5.435748  
    1010A      5.450911  1011A      5.463234  1012A      5.465435  
    1013A      5.476254  1014A      5.479359  1015A      5.486088  
    1016A      5.490137  1017A      5.511041  1018A      5.524765  
    1019A      5.535191  1020A      5.540639  1021A      5.552101  
    1022A      5.554578  1023A      5.565309  1024A      5.578773  
    1025A      5.595027  1026A      5.599973  1027A      5.608068  
    1028A      5.614284  1029A      5.620820  1030A      5.629131  
    1031A      5.634846  1032A      5.657428  1033A      5.663165  
    1034A      5.675016  1035A      5.686204  1036A      5.694648  
    1037A      5.718280  1038A      5.721565  1039A      5.734548  
    1040A      5.739181  1041A      5.750788  1042A      5.769478  
    1043A      5.781748  1044A      5.791893  1045A      5.804700  
    1046A      5.810756  1047A      5.818034  1048A      5.821730  
    1049A      5.839025  1050A      5.847184  1051A      5.869460  
    1052A      5.881565  1053A      5.903590  1054A      5.915414  
    1055A      5.926638  1056A      5.943688  1057A      5.967462  
    1058A      6.019379  1059A      6.035810  1060A      6.038188  
    1061A      6.065351  1062A      6.084483  1063A      6.095817  
    1064A      6.105112  1065A      6.130118  1066A      6.164469  
    1067A      6.182553  1068A      6.205398  1069A      6.215669  
    1070A      6.227639  1071A      6.256503  1072A      6.282648  
    1073A      6.312042  1074A      6.335360  1075A      6.359296  
    1076A      6.377191  1077A      6.393663  1078A      6.420513  
    1079A      6.459386  1080A      6.478834  1081A      6.500869  
    1082A      6.531237  1083A      6.550672  1084A      6.721797  
    1085A      6.730085  1086A      6.768168  1087A      6.771645  
    1088A      6.774547  1089A      6.789894  1090A      6.792791  
    1091A      6.807126  1092A      6.820286  1093A      6.840743  
    1094A      6.864295  1095A      6.869399  1096A      6.877127  
    1097A      6.886417  1098A      6.893787  1099A      6.900830  
    1100A      6.909564  1101A      6.929023  1102A      6.934799  
    1103A      6.950057  1104A      6.957510  1105A      6.968487  
    1106A      6.984388  1107A      6.989747  1108A      7.008186  
    1109A      7.019568  1110A      7.029000  1111A      7.041633  
    1112A      7.043993  1113A      7.052150  1114A      7.060725  
    1115A      7.069601  1116A      7.084178  1117A      7.092925  
    1118A      7.107409  1119A      7.125211  1120A      7.129967  
    1121A      7.143301  1122A      7.155074  1123A      7.169291  
    1124A      7.175670  1125A      7.183685  1126A      7.190246  
    1127A      7.193336  1128A      7.203427  1129A      7.215299  
    1130A      7.234013  1131A      7.244291  1132A      7.290775  
    1133A      7.300832  1134A      7.308129  1135A      7.319174  
    1136A      7.345188  1137A      7.348554  1138A      7.357396  
    1139A      7.372932  1140A      7.375880  1141A      7.384881  
    1142A      7.400973  1143A      7.410874  1144A      7.419820  
    1145A      7.434834  1146A      7.435780  1147A      7.455044  
    1148A      7.462682  1149A      7.479062  1150A      7.489342  
    1151A      7.495240  1152A      7.511290  1153A      7.523306  
    1154A      7.546528  1155A      7.549346  1156A      7.563124  
    1157A      7.574606  1158A      7.596023  1159A      7.605300  
    1160A      7.619490  1161A      7.630807  1162A      7.640445  
    1163A      7.657570  1164A      7.665918  1165A      7.681029  
    1166A      7.702873  1167A      7.719582  1168A      7.748681  
    1169A      7.752414  1170A      7.769845  1171A      7.775572  
    1172A      7.800992  1173A      7.831820  1174A      7.845009  
    1175A      7.849378  1176A      7.865627  1177A      7.884916  
    1178A      7.892720  1179A      7.913989  1180A      7.930580  
    1181A      7.941049  1182A      7.951717  1183A      7.953728  
    1184A      7.990818  1185A      8.018822  1186A      8.096767  
    1187A      8.128808  1188A      8.132105  1189A      8.168741  
    1190A      8.178588  1191A      8.194684  1192A      8.208857  
    1193A      8.263015  1194A      8.302503  1195A      8.342725  
    1196A      8.355681  1197A      8.373670  1198A      8.390106  
    1199A      8.418845  1200A      8.428068  1201A      8.698704  
    1202A      8.714648  1203A      8.763728  1204A      8.783282  
    1205A      8.801660  1206A     12.004228  1207A     13.706155  
    1208A     15.251313  1209A     15.867899  1210A     16.849406  
    1211A     16.874893  1212A     17.226663  1213A     17.374843  
    1214A     17.575301  1215A     17.721737  1216A     18.188719  
    1217A     18.907256  1218A     19.149964  1219A     19.613620  
    1220A     19.703593  1221A     19.837878  1222A     19.921945  
    1223A     20.686495  

    Final Occupation by Irrep:
              A 
    DOCC [    76 ]

  @DF-RHF Final Energy: -1327.85384572592420

   => Energetics <=

    Nuclear Repulsion Energy =           1773.3143118426553428
    One-Electron Energy =               -5358.6537817103107955
    Two-Electron Energy =                2257.4856241417314777
    Total Energy =                      -1327.8538457259242023

Computation Completed

*** tstop() called on node92.bme.utexas.edu at Mon Nov  9 22:20:36 2020
Module time:
	user time   =    2809.57 seconds =      46.83 minutes
	system time =      18.84 seconds =       0.31 minutes
	total time  =        381 seconds =       6.35 minutes
Total time:
	user time   =    2809.57 seconds =      46.83 minutes
	system time =      18.84 seconds =       0.31 minutes
	total time  =        381 seconds =       6.35 minutes
   => Loading Basis Set <=

    Name: (AUG-CC-PVTZ AUX)
    Role: RIFIT
    Keyword: DF_BASIS_MP2
    atoms 1     entry P          line   590 file /home/xy3866/psi4conda/share/psi4/basis/aug-cc-pvtz-ri.gbs 
    atoms 2-10  entry O          line   264 file /home/xy3866/psi4conda/share/psi4/basis/aug-cc-pvtz-ri.gbs 
    atoms 11-18 entry C          line   148 file /home/xy3866/psi4conda/share/psi4/basis/aug-cc-pvtz-ri.gbs 
    atoms 19-35 entry H          line    30 file /home/xy3866/psi4conda/share/psi4/basis/aug-cc-pvtz-ri.gbs 


*** tstart() called on node92.bme.utexas.edu
*** at Mon Nov  9 22:20:37 2020


  //>>>>>>>>>>>>>>>>>>>>>>>>>>>>>>>>>>>//
  //               DFMP2               //
  //<<<<<<<<<<<<<<<<<<<<<<<<<<<<<<<<<<<//

	 --------------------------------------------------------
	                          DF-MP2                         
	      2nd-Order Density-Fitted Moller-Plesset Theory     
	              RMP2 Wavefunction,   8 Threads             
	                                                         
	        Rob Parrish, Justin Turney, Andy Simmonett,      
	           Ed Hohenstein, and C. David Sherrill          
	 --------------------------------------------------------

   => Auxiliary Basis Set <=

  Basis Set: (AUG-CC-PVTZ AUX)
    Blend: AUG-CC-PVTZ-RI
    Number of shells: 751
    Number of basis function: 2731
    Number of Cartesian functions: 3438
    Spherical Harmonics?: true
    Max angular momentum: 4

	 --------------------------------------------------------
	                 NBF =  1223, NAUX =  2731
	 --------------------------------------------------------
	   CLASS    FOCC     OCC    AOCC    AVIR     VIR    FVIR
	   PAIRS       0      76      76    1147    1147       0
	 --------------------------------------------------------


         ------------------------------------------------------------
                                     CPHF                           
                                  Rob Parrish                       
         ------------------------------------------------------------

  ==> Geometry <==

    Molecular point group: c1
    Full point group: C1

    Geometry (in Angstrom), charge = 0, multiplicity = 1:

       Center              X                  Y                   Z               Mass       
    ------------   -----------------  -----------------  -----------------  -----------------
         P           -2.288194416590    -0.940655331529     0.347391059330    30.973761998420
         O           -0.980251416590    -0.202174331529     0.941002059330    15.994914619570
         O            1.344151583410    -1.676095331529     1.233564059330    15.994914619570
         O            0.080606583410     2.358991668471     0.464881059330    15.994914619570
         O            3.070416583410    -2.187684331529    -0.805876940670    15.994914619570
         O            2.849236583410     2.502500668471     0.374248059330    15.994914619570
         O            4.197589583410     0.434784668471    -0.970160940670    15.994914619570
         O           -2.824961416590     0.032738668471    -0.804817940670    15.994914619570
         O           -3.257219416590    -0.723894331529     1.624384059330    15.994914619570
         O           -2.117091416590    -2.344256331529    -0.096954940670    15.994914619570
         C            0.120063583410     0.029396668471     0.019032059330    12.000000000000
         C            0.955193583410    -1.244817331529    -0.073011940670    12.000000000000
         C            0.859528583410     1.217052768471     0.501210859330    12.000000000000
         C            2.261561583410    -1.014919331529    -0.815323940670    12.000000000000
         C            2.178976583410     1.395859668471    -0.225327940670    12.000000000000
         C            3.027743583410     0.148092668471    -0.207608940670    12.000000000000
         C           -3.122311416590     1.430985668471    -0.486172940670    12.000000000000
         C           -3.534415416590     2.084552668471    -1.781405940670    12.000000000000
         H           -0.281190416590     0.298188668471    -0.967524940670     1.007825032230
         H            0.372170583410    -2.029976331529    -0.569318940670     1.007825032230
         H            1.159021583410     0.997264668471     1.614869059330     1.007825032230
         H            2.062835583410    -0.789272331529    -1.870042940670     1.007825032230
         H            1.863106483410     1.631845368471    -1.256275040670     1.007825032230
         H            3.297756583410    -0.095144331529     0.830359059330     1.007825032230
         H            0.523676583410    -1.888644331529     1.714223059330     1.007825032230
         H            0.667441583410     3.108698668471     0.685897059330     1.007825032230
         H            2.975444583410    -2.547986331529     0.097367059330     1.007825032230
         H            3.723330583410     2.548573668471    -0.056155940670     1.007825032230
         H            4.641628583410    -0.424446331529    -1.094373940670     1.007825032230
         H           -3.806493416590    -1.522950331529     1.737441059330     1.007825032230
         H           -3.928644416590     1.444928668471     0.252099059330     1.007825032230
         H           -2.227860416590     1.892267668471    -0.056382940670     1.007825032230
         H           -3.798619416590     3.130269668471    -1.599957940670     1.007825032230
         H           -2.715294416590     2.052710668471    -2.502161940670     1.007825032230
         H           -4.399042416590     1.573710668471    -2.210010940670     1.007825032230

  Nuclear repulsion = 1773.314311842655570
  Reference energy  = -1327.853845725924202

  ==> Basis Set <==

  Basis Set: AUG-CC-PVTZ
    Blend: AUG-CC-PVTZ
    Number of shells: 407
    Number of basis function: 1223
    Number of Cartesian functions: 1419
    Spherical Harmonics?: true
    Max angular momentum: 3

  ==> CGRSolver (by Rob Parrish) <==

   Number of roots    =         1
   Preconditioning    =    JACOBI
   Convergence cutoff =     1E-06
   Maximum iterations =       100

  ==> CPHFRHamiltonian (by Rob Parrish) <== 

  ==> DiskDFJK: Density-Fitted J/K Matrices <==

    J tasked:                  Yes
    K tasked:                  Yes
    wK tasked:                  No
    OpenMP threads:              8
    Integrals threads:           8
    Memory [MiB]:            22888
    Algorithm:                Core
    Integral Cache:           NONE
    Schwarz Cutoff:          1E-12
    Fitting Condition:       1E-10

   => Auxiliary Basis Set <=

  Basis Set: (AUG-CC-PVTZ AUX)
    Blend: AUG-CC-PVTZ-JKFIT
    Number of shells: 790
    Number of basis function: 2696
    Number of Cartesian functions: 3342
    Spherical Harmonics?: true
    Max angular momentum: 4

  ==> CPHF Iterations <==

  => Iterations <=

             Iter  Converged  Remaining    Residual
  CGR           1          0          1   8.109E-02
  CGR           2          0          1   1.854E-02
  CGR           3          0          1   7.196E-03
  CGR           4          0          1   2.052E-03
  CGR           5          0          1   7.095E-04
  CGR           6          0          1   2.024E-04
  CGR           7          0          1   6.969E-05
  CGR           8          0          1   2.255E-05
  CGR           9          0          1   7.354E-06
  CGR          10          0          1   2.622E-06
  CGR          11          1          0   7.247E-07

    CGRSolver converged.

	-----------------------------------------------------------
	 ==================> DF-MP2 Energies <==================== 
	-----------------------------------------------------------
	 Reference Energy          =   -1327.8538457259242023 [Eh]
	 Singles Energy            =      -0.0000000000000000 [Eh]
	 Same-Spin Energy          =      -1.0150917894666673 [Eh]
	 Opposite-Spin Energy      =      -3.0762232669961671 [Eh]
	 Correlation Energy        =      -4.0913150564628342 [Eh]
	 Total Energy              =   -1331.9451607823871200 [Eh]
	-----------------------------------------------------------
	 ================> DF-SCS-MP2 Energies <================== 
	-----------------------------------------------------------
	 SCS Same-Spin Scale       =       0.3333333333333333 [-]
	 SCS Opposite-Spin Scale   =       1.2000000000000000 [-]
	 SCS Same-Spin Energy      =      -0.3383639298222224 [Eh]
	 SCS Opposite-Spin Energy  =      -3.6914679203954002 [Eh]
	 SCS Correlation Energy    =      -4.0298318502176222 [Eh]
	 SCS Total Energy          =   -1331.8836775761417357 [Eh]
	-----------------------------------------------------------



Properties will be evaluated at  -0.000000,   0.000000,  -0.000000 [a0]

Properties computed using the MP2 density matrix

  Nuclear Dipole Moment: [e a0]
     X:     2.2378      Y:     9.6503      Z:    -5.2319

  Electronic Dipole Moment: [e a0]
     X:    -2.7087      Y:    -8.8818      Z:     5.4893

  Dipole Moment: [e a0]
     X:    -0.4708      Y:     0.7685      Z:     0.2574     Total:     0.9373

  Dipole Moment: [D]
     X:    -1.1968      Y:     1.9533      Z:     0.6542     Total:     2.3823


*** tstop() called on node92.bme.utexas.edu at Mon Nov  9 23:03:52 2020
Module time:
	user time   =   13355.53 seconds =     222.59 minutes
	system time =     165.87 seconds =       2.76 minutes
	total time  =       2595 seconds =      43.25 minutes
Total time:
	user time   =   16165.95 seconds =     269.43 minutes
	system time =     184.73 seconds =       3.08 minutes
	total time  =       2977 seconds =      49.62 minutes

    Psi4 stopped on: Monday, 09 November 2020 11:03PM
    Psi4 wall time for execution: 0:49:37.85

*** Psi4 exiting successfully. Buy a developer a beer!
