
    -----------------------------------------------------------------------
          Psi4: An Open-Source Ab Initio Electronic Structure Package
                               Psi4 1.3.2 release

                         Git: Rev {HEAD} ecbda83 


    R. M. Parrish, L. A. Burns, D. G. A. Smith, A. C. Simmonett,
    A. E. DePrince III, E. G. Hohenstein, U. Bozkaya, A. Yu. Sokolov,
    R. Di Remigio, R. M. Richard, J. F. Gonthier, A. M. James,
    H. R. McAlexander, A. Kumar, M. Saitow, X. Wang, B. P. Pritchard,
    P. Verma, H. F. Schaefer III, K. Patkowski, R. A. King, E. F. Valeev,
    F. A. Evangelista, J. M. Turney, T. D. Crawford, and C. D. Sherrill,
    J. Chem. Theory Comput. 13(7) pp 3185--3197 (2017).
    (doi: 10.1021/acs.jctc.7b00174)


                         Additional Contributions by
    P. Kraus, H. Kruse, M. H. Lechner, M. C. Schieber, R. A. Shaw,
    A. Alenaizan, R. Galvelis, Z. L. Glick, S. Lehtola, and J. P. Misiewicz

    -----------------------------------------------------------------------


    Psi4 started on: Friday, 06 November 2020 06:02PM

    Process ID: 105711
    Host:       node91.bme.utexas.edu
    PSIDATADIR: /home/xy3866/psi4conda/share/psi4
    Memory:     500.0 MiB
    Threads:    8
    
  ==> Input File <==

--------------------------------------------------------------------------
#psi4
#
memory 32 gb

molecule  {
0 1
  P       -2.3252894    -0.9345108     0.4213616
  O       -0.9821530    -0.2015620     0.9382890
  O        1.3422500    -1.6754830     1.2308510
  O        0.0787050     2.3596040     0.4621680
  O        3.0685150    -2.1870720    -0.8085900
  O        2.8473350     2.5031130     0.3715350
  O        4.1956880     0.4353970    -0.9728740
  O       -2.8268630     0.0333510    -0.8075310
  O       -3.2591210    -0.7232820     1.6216710
  O       -2.1189930    -2.3436440    -0.0996680
  C        0.1565394     0.0625624     0.0734394
  C        0.9532920    -1.2442050    -0.0757250
  C        0.8985890     1.2026440     0.5648510
  C        2.2596600    -1.0143070    -0.8180370
  C        2.1770750     1.3964720    -0.2280410
  C        3.0258420     0.1487050    -0.2103220
  C       -3.1242130     1.4315980    -0.4888860
  C       -3.5363170     2.0851650    -1.7841190
  H       -0.2830920     0.2988010    -0.9702380
  H        0.3702690    -2.0293640    -0.5720320
  H        1.1571200     0.9978770     1.6121560
  H        2.0609340    -0.7886600    -1.8727560
  H        1.9169870     1.6362870    -1.2735830
  H        3.2958550    -0.0945320     0.8276460
  H        0.5217750    -1.8880320     1.7115100
  H        0.6655400     3.1093110     0.6831840
  H        2.9735430    -2.5473740     0.0946540
  H        3.7214290     2.5491860    -0.0588690
  H        4.6397270    -0.4238340    -1.0970870
  H       -3.8083950    -1.5223380     1.7347280
  H       -3.9305460     1.4455410     0.2493860
  H       -2.2297620     1.8928800    -0.0590960
  H       -3.8005210     3.1308820    -1.6026710
  H       -2.7171960     2.0533230    -2.5048750
  H       -4.4009440     1.5743230    -2.2127240
units angstrom
no_reorient  #important for SAPT in psi4, default
symmetry c1  #important for SAPT in psi4, default
}

set PROPERTIES_ORIGIN ["COM"]
properties('MP2/aug-cc-pvtz', properties = ['dipole'])
--------------------------------------------------------------------------

  Memory set to  29.802 GiB by Python driver.
    SCF Algorithm Type (re)set to DF.

*** tstart() called on node91.bme.utexas.edu
*** at Fri Nov  6 18:02:20 2020

   => Loading Basis Set <=

    Name: AUG-CC-PVTZ
    Role: ORBITAL
    Keyword: BASIS
    atoms 1     entry P          line   820 file /home/xy3866/psi4conda/share/psi4/basis/aug-cc-pvtz.gbs 
    atoms 2-10  entry O          line   327 file /home/xy3866/psi4conda/share/psi4/basis/aug-cc-pvtz.gbs 
    atoms 11-18 entry C          line   235 file /home/xy3866/psi4conda/share/psi4/basis/aug-cc-pvtz.gbs 
    atoms 19-35 entry H          line    36 file /home/xy3866/psi4conda/share/psi4/basis/aug-cc-pvtz.gbs 


         ---------------------------------------------------------
                                   SCF
               by Justin Turney, Rob Parrish, Andy Simmonett
                          and Daniel G. A. Smith
                              RHF Reference
                        8 Threads,  30517 MiB Core
         ---------------------------------------------------------

  ==> Geometry <==

    Molecular point group: c1
    Full point group: C1

    Geometry (in Angstrom), charge = 0, multiplicity = 1:

       Center              X                  Y                   Z               Mass       
    ------------   -----------------  -----------------  -----------------  -----------------
         P           -2.323103916328    -0.936461736495     0.410736673921    30.973761998420
         O           -0.979967516328    -0.203512936495     0.927664073921    15.994914619570
         O            1.344435483672    -1.677433936495     1.220226073921    15.994914619570
         O            0.080890483672     2.357653063505     0.451543073921    15.994914619570
         O            3.070700483672    -2.189022936495    -0.819214926079    15.994914619570
         O            2.849520483672     2.501162063505     0.360910073921    15.994914619570
         O            4.197873483672     0.433446063505    -0.983498926079    15.994914619570
         O           -2.824677516328     0.031400063505    -0.818155926079    15.994914619570
         O           -3.256935516328    -0.725232936495     1.611046073921    15.994914619570
         O           -2.116807516328    -2.345594936495    -0.110292926079    15.994914619570
         C            0.158724883672     0.060611463505     0.062814473921    12.000000000000
         C            0.955477483672    -1.246155936495    -0.086349926079    12.000000000000
         C            0.900774483672     1.200693063505     0.554226073921    12.000000000000
         C            2.261845483672    -1.016257936495    -0.828661926079    12.000000000000
         C            2.179260483672     1.394521063505    -0.238665926079    12.000000000000
         C            3.028027483672     0.146754063505    -0.220946926079    12.000000000000
         C           -3.122027516328     1.429647063505    -0.499510926079    12.000000000000
         C           -3.534131516328     2.083214063505    -1.794743926079    12.000000000000
         H           -0.280906516328     0.296850063505    -0.980862926079     1.007825032230
         H            0.372454483672    -2.031314936495    -0.582656926079     1.007825032230
         H            1.159305483672     0.995926063505     1.601531073921     1.007825032230
         H            2.063119483672    -0.790610936495    -1.883380926079     1.007825032230
         H            1.919172483672     1.634336063505    -1.284207926079     1.007825032230
         H            3.298040483672    -0.096482936495     0.817021073921     1.007825032230
         H            0.523960483672    -1.889982936495     1.700885073921     1.007825032230
         H            0.667725483672     3.107360063505     0.672559073921     1.007825032230
         H            2.975728483672    -2.549324936495     0.084029073921     1.007825032230
         H            3.723614483672     2.547235063505    -0.069493926079     1.007825032230
         H            4.641912483672    -0.425784936495    -1.107711926079     1.007825032230
         H           -3.806209516328    -1.524288936495     1.724103073921     1.007825032230
         H           -3.928360516328     1.443590063505     0.238761073921     1.007825032230
         H           -2.227576516328     1.890929063505    -0.069720926079     1.007825032230
         H           -3.798335516328     3.128931063505    -1.613295926079     1.007825032230
         H           -2.715010516328     2.051372063505    -2.515499926079     1.007825032230
         H           -4.398758516328     1.572372063505    -2.223348926079     1.007825032230

  Running in c1 symmetry.

  Rotational constants: A =      0.01973  B =      0.00840  C =      0.00685 [cm^-1]
  Rotational constants: A =    591.38015  B =    251.72040  C =    205.41136 [MHz]
  Nuclear repulsion = 1771.581156805604678

  Charge       = 0
  Multiplicity = 1
  Electrons    = 152
  Nalpha       = 76
  Nbeta        = 76

  ==> Algorithm <==

  SCF Algorithm Type is DF.
  DIIS enabled.
  MOM disabled.
  Fractional occupation disabled.
  Guess Type is SAD.
  Energy threshold   = 1.00e-10
  Density threshold  = 1.00e-10
  Integral threshold = 0.00e+00

  ==> Primary Basis <==

  Basis Set: AUG-CC-PVTZ
    Blend: AUG-CC-PVTZ
    Number of shells: 407
    Number of basis function: 1223
    Number of Cartesian functions: 1419
    Spherical Harmonics?: true
    Max angular momentum: 3

   => Loading Basis Set <=

    Name: (AUG-CC-PVTZ AUX)
    Role: JKFIT
    Keyword: DF_BASIS_SCF
    atoms 1     entry P          line   644 file /home/xy3866/psi4conda/share/psi4/basis/aug-cc-pvtz-jkfit.gbs 
    atoms 2-10  entry O          line   286 file /home/xy3866/psi4conda/share/psi4/basis/aug-cc-pvtz-jkfit.gbs 
    atoms 11-18 entry C          line   162 file /home/xy3866/psi4conda/share/psi4/basis/aug-cc-pvtz-jkfit.gbs 
    atoms 19-35 entry H          line    70 file /home/xy3866/psi4conda/share/psi4/basis/aug-cc-pvtz-jkfit.gbs 

  ==> Pre-Iterations <==

   -------------------------------------------------------
    Irrep   Nso     Nmo     Nalpha   Nbeta   Ndocc  Nsocc
   -------------------------------------------------------
     A       1223    1223       0       0       0       0
   -------------------------------------------------------
    Total    1223    1223      76      76      76       0
   -------------------------------------------------------

  ==> Integral Setup <==

  ==> DiskDFJK: Density-Fitted J/K Matrices <==

    J tasked:                  Yes
    K tasked:                  Yes
    wK tasked:                  No
    OpenMP threads:              8
    Integrals threads:           8
    Memory [MiB]:            22888
    Algorithm:                Core
    Integral Cache:           NONE
    Schwarz Cutoff:          1E-12
    Fitting Condition:       1E-10

   => Auxiliary Basis Set <=

  Basis Set: (AUG-CC-PVTZ AUX)
    Blend: AUG-CC-PVTZ-JKFIT
    Number of shells: 790
    Number of basis function: 2696
    Number of Cartesian functions: 3342
    Spherical Harmonics?: true
    Max angular momentum: 4

  Minimum eigenvalue in the overlap matrix is 6.6983959353E-07.
  Using Symmetric Orthogonalization.

  SCF Guess: Superposition of Atomic Densities via on-the-fly atomic UHF.

  ==> Iterations <==

                           Total Energy        Delta E     RMS |[F,P]|

   @DF-RHF iter SAD: -1327.22195870758833   -1.32722e+03   0.00000e+00 
   @DF-RHF iter   1: -1327.22919350271104   -7.23480e-03   9.39720e-04 DIIS
   @DF-RHF iter   2: -1327.68918216515044   -4.59989e-01   5.45477e-04 DIIS
   @DF-RHF iter   3: -1327.83699314655814   -1.47811e-01   9.47571e-05 DIIS
   @DF-RHF iter   4: -1327.84438266443453   -7.38952e-03   3.86139e-05 DIIS
   @DF-RHF iter   5: -1327.84542506337766   -1.04240e-03   8.37974e-06 DIIS
   @DF-RHF iter   6: -1327.84548919964459   -6.41363e-05   2.62734e-06 DIIS
   @DF-RHF iter   7: -1327.84549716281845   -7.96317e-06   8.74218e-07 DIIS
   @DF-RHF iter   8: -1327.84549812329351   -9.60475e-07   2.73017e-07 DIIS
   @DF-RHF iter   9: -1327.84549822450867   -1.01215e-07   8.78520e-08 DIIS
   @DF-RHF iter  10: -1327.84549823474208   -1.02334e-08   2.65919e-08 DIIS
   @DF-RHF iter  11: -1327.84549823556881   -8.26731e-10   8.32716e-09 DIIS
   @DF-RHF iter  12: -1327.84549823564839   -7.95808e-11   2.69458e-09 DIIS
   @DF-RHF iter  13: -1327.84549823564612    2.27374e-12   8.95380e-10 DIIS
   @DF-RHF iter  14: -1327.84549823564384    2.27374e-12   3.64638e-10 DIIS
   @DF-RHF iter  15: -1327.84549823564703   -3.18323e-12   1.28525e-10 DIIS
   @DF-RHF iter  16: -1327.84549823564339    3.63798e-12   5.47805e-11 DIIS
  Energy and wave function converged.


  ==> Post-Iterations <==

    Orbital Energies [Eh]
    ---------------------

    Doubly Occupied:                                                      

       1A    -80.119843     2A    -20.638344     3A    -20.601798  
       4A    -20.589671     5A    -20.580211     6A    -20.576895  
       7A    -20.573545     8A    -20.573468     9A    -20.573410  
      10A    -20.517608    11A    -11.321681    12A    -11.302650  
      13A    -11.297726    14A    -11.297548    15A    -11.295298  
      16A    -11.293101    17A    -11.290881    18A    -11.225853  
      19A     -7.635040    20A     -5.533872    21A     -5.533136  
      22A     -5.531685    23A     -1.479215    24A     -1.418110  
      25A     -1.400283    26A     -1.393159    27A     -1.380405  
      28A     -1.368190    29A     -1.363515    30A     -1.353115  
      31A     -1.284323    32A     -1.123050    33A     -1.033048  
      34A     -1.015581    35A     -1.002741    36A     -0.885291  
      37A     -0.861843    38A     -0.857387    39A     -0.834648  
      40A     -0.805820    41A     -0.753929    42A     -0.745458  
      43A     -0.733584    44A     -0.727326    45A     -0.712326  
      46A     -0.693712    47A     -0.681930    48A     -0.675513  
      49A     -0.664290    50A     -0.660355    51A     -0.644016  
      52A     -0.633513    53A     -0.626493    54A     -0.615945  
      55A     -0.607032    56A     -0.597911    57A     -0.587643  
      58A     -0.577903    59A     -0.566416    60A     -0.557889  
      61A     -0.553637    62A     -0.543782    63A     -0.538028  
      64A     -0.534970    65A     -0.523661    66A     -0.520780  
      67A     -0.508430    68A     -0.500935    69A     -0.494384  
      70A     -0.475299    71A     -0.469983    72A     -0.465988  
      73A     -0.459296    74A     -0.455196    75A     -0.447993  
      76A     -0.435564  

    Virtual:                                                              

      77A      0.022709    78A      0.028749    79A      0.032484  
      80A      0.035992    81A      0.041475    82A      0.042902  
      83A      0.046992    84A      0.051432    85A      0.054817  
      86A      0.059253    87A      0.062067    88A      0.064911  
      89A      0.072695    90A      0.074445    91A      0.076178  
      92A      0.088317    93A      0.089976    94A      0.094074  
      95A      0.101614    96A      0.104094    97A      0.111181  
      98A      0.115802    99A      0.117936   100A      0.120736  
     101A      0.121476   102A      0.125994   103A      0.128068  
     104A      0.130082   105A      0.133707   106A      0.141777  
     107A      0.143458   108A      0.144586   109A      0.148621  
     110A      0.150167   111A      0.153372   112A      0.154957  
     113A      0.158141   114A      0.160902   115A      0.165711  
     116A      0.168887   117A      0.172030   118A      0.174033  
     119A      0.175878   120A      0.178126   121A      0.182983  
     122A      0.188650   123A      0.193844   124A      0.197621  
     125A      0.205716   126A      0.211266   127A      0.213454  
     128A      0.219398   129A      0.220933   130A      0.225869  
     131A      0.230161   132A      0.231736   133A      0.235663  
     134A      0.238582   135A      0.242354   136A      0.244201  
     137A      0.246733   138A      0.250240   139A      0.255911  
     140A      0.257559   141A      0.259407   142A      0.261135  
     143A      0.263209   144A      0.267592   145A      0.270503  
     146A      0.272344   147A      0.277398   148A      0.278018  
     149A      0.281834   150A      0.285560   151A      0.289062  
     152A      0.293431   153A      0.295092   154A      0.298029  
     155A      0.300267   156A      0.301569   157A      0.307841  
     158A      0.310887   159A      0.312173   160A      0.316088  
     161A      0.318714   162A      0.323131   163A      0.324986  
     164A      0.328032   165A      0.329592   166A      0.334841  
     167A      0.337258   168A      0.340269   169A      0.341975  
     170A      0.347835   171A      0.350576   172A      0.355831  
     173A      0.356633   174A      0.360011   175A      0.362451  
     176A      0.363735   177A      0.365842   178A      0.372686  
     179A      0.375133   180A      0.378151   181A      0.382969  
     182A      0.386255   183A      0.390013   184A      0.391795  
     185A      0.393779   186A      0.394482   187A      0.398381  
     188A      0.399655   189A      0.405020   190A      0.406806  
     191A      0.409655   192A      0.416013   193A      0.418918  
     194A      0.424076   195A      0.427830   196A      0.431386  
     197A      0.431694   198A      0.433776   199A      0.439366  
     200A      0.441229   201A      0.443827   202A      0.447979  
     203A      0.448228   204A      0.452810   205A      0.454168  
     206A      0.456349   207A      0.460996   208A      0.463433  
     209A      0.467316   210A      0.471973   211A      0.473740  
     212A      0.474607   213A      0.475892   214A      0.478146  
     215A      0.481635   216A      0.487048   217A      0.489962  
     218A      0.494735   219A      0.497721   220A      0.499352  
     221A      0.501338   222A      0.502466   223A      0.509186  
     224A      0.511371   225A      0.513319   226A      0.521581  
     227A      0.523012   228A      0.525014   229A      0.528862  
     230A      0.531347   231A      0.533461   232A      0.536269  
     233A      0.544419   234A      0.545844   235A      0.548285  
     236A      0.550621   237A      0.551836   238A      0.555325  
     239A      0.559335   240A      0.561031   241A      0.562182  
     242A      0.567909   243A      0.570888   244A      0.573012  
     245A      0.576290   246A      0.580624   247A      0.582261  
     248A      0.586411   249A      0.590153   250A      0.592129  
     251A      0.598051   252A      0.599136   253A      0.603418  
     254A      0.608776   255A      0.610875   256A      0.611786  
     257A      0.617500   258A      0.618230   259A      0.627598  
     260A      0.628374   261A      0.631054   262A      0.634355  
     263A      0.636621   264A      0.644101   265A      0.646908  
     266A      0.649890   267A      0.654229   268A      0.658072  
     269A      0.660899   270A      0.667366   271A      0.669362  
     272A      0.675183   273A      0.678166   274A      0.679963  
     275A      0.686119   276A      0.687875   277A      0.694345  
     278A      0.697320   279A      0.703240   280A      0.707302  
     281A      0.712426   282A      0.718200   283A      0.722056  
     284A      0.726332   285A      0.730914   286A      0.738160  
     287A      0.740928   288A      0.745132   289A      0.747265  
     290A      0.748916   291A      0.756732   292A      0.759074  
     293A      0.771010   294A      0.775150   295A      0.780748  
     296A      0.782931   297A      0.787283   298A      0.796242  
     299A      0.804196   300A      0.807188   301A      0.809054  
     302A      0.812299   303A      0.819426   304A      0.821835  
     305A      0.824558   306A      0.827852   307A      0.839530  
     308A      0.841295   309A      0.846205   310A      0.847478  
     311A      0.851486   312A      0.855427   313A      0.858445  
     314A      0.865293   315A      0.868481   316A      0.875946  
     317A      0.880064   318A      0.882894   319A      0.887915  
     320A      0.891669   321A      0.899473   322A      0.904261  
     323A      0.905432   324A      0.908976   325A      0.909671  
     326A      0.914241   327A      0.917281   328A      0.921399  
     329A      0.923886   330A      0.931195   331A      0.935543  
     332A      0.939497   333A      0.941002   334A      0.944257  
     335A      0.945755   336A      0.950938   337A      0.952859  
     338A      0.957174   339A      0.962120   340A      0.967000  
     341A      0.968436   342A      0.974464   343A      0.977690  
     344A      0.978763   345A      0.987902   346A      0.990461  
     347A      0.995461   348A      0.998438   349A      0.999607  
     350A      1.001779   351A      1.006724   352A      1.008197  
     353A      1.016424   354A      1.017657   355A      1.019956  
     356A      1.024303   357A      1.030393   358A      1.034150  
     359A      1.038857   360A      1.043660   361A      1.045615  
     362A      1.052880   363A      1.053310   364A      1.057658  
     365A      1.060984   366A      1.064250   367A      1.069606  
     368A      1.071527   369A      1.075008   370A      1.079163  
     371A      1.084027   372A      1.087308   373A      1.089499  
     374A      1.092889   375A      1.097700   376A      1.099202  
     377A      1.101575   378A      1.108555   379A      1.112239  
     380A      1.112442   381A      1.114186   382A      1.119695  
     383A      1.128435   384A      1.130638   385A      1.133432  
     386A      1.137844   387A      1.141407   388A      1.142812  
     389A      1.146101   390A      1.146755   391A      1.153308  
     392A      1.160185   393A      1.163796   394A      1.167571  
     395A      1.173639   396A      1.174416   397A      1.177146  
     398A      1.180174   399A      1.180516   400A      1.184892  
     401A      1.190829   402A      1.195752   403A      1.198316  
     404A      1.203594   405A      1.206494   406A      1.210847  
     407A      1.214344   408A      1.216446   409A      1.218103  
     410A      1.223370   411A      1.227799   412A      1.231516  
     413A      1.233151   414A      1.237258   415A      1.242105  
     416A      1.243896   417A      1.249181   418A      1.253751  
     419A      1.256918   420A      1.262918   421A      1.268396  
     422A      1.272510   423A      1.275200   424A      1.280298  
     425A      1.283955   426A      1.288493   427A      1.293399  
     428A      1.295208   429A      1.303849   430A      1.308201  
     431A      1.313442   432A      1.315578   433A      1.316644  
     434A      1.324874   435A      1.330250   436A      1.335456  
     437A      1.342062   438A      1.346471   439A      1.352576  
     440A      1.360403   441A      1.366100   442A      1.370324  
     443A      1.375440   444A      1.376427   445A      1.379883  
     446A      1.387265   447A      1.393182   448A      1.395013  
     449A      1.399855   450A      1.401824   451A      1.410827  
     452A      1.413581   453A      1.421623   454A      1.422510  
     455A      1.433174   456A      1.435950   457A      1.440197  
     458A      1.447589   459A      1.450777   460A      1.454679  
     461A      1.465194   462A      1.468078   463A      1.473144  
     464A      1.473398   465A      1.475352   466A      1.482770  
     467A      1.493561   468A      1.500982   469A      1.504727  
     470A      1.508588   471A      1.513450   472A      1.521362  
     473A      1.522638   474A      1.525326   475A      1.531362  
     476A      1.533713   477A      1.541035   478A      1.543079  
     479A      1.551027   480A      1.554244   481A      1.561426  
     482A      1.569584   483A      1.572947   484A      1.575204  
     485A      1.576827   486A      1.581412   487A      1.586446  
     488A      1.591454   489A      1.603308   490A      1.607524  
     491A      1.615826   492A      1.618590   493A      1.620167  
     494A      1.625615   495A      1.629374   496A      1.634314  
     497A      1.636845   498A      1.643099   499A      1.645897  
     500A      1.650884   501A      1.658833   502A      1.664590  
     503A      1.670065   504A      1.674932   505A      1.680541  
     506A      1.683245   507A      1.687527   508A      1.688499  
     509A      1.693325   510A      1.697299   511A      1.706629  
     512A      1.713471   513A      1.714696   514A      1.722541  
     515A      1.725257   516A      1.730239   517A      1.731441  
     518A      1.731901   519A      1.738297   520A      1.741689  
     521A      1.749412   522A      1.751384   523A      1.753294  
     524A      1.762206   525A      1.764225   526A      1.768934  
     527A      1.777260   528A      1.782249   529A      1.785694  
     530A      1.791047   531A      1.802812   532A      1.803772  
     533A      1.809388   534A      1.813044   535A      1.817132  
     536A      1.820482   537A      1.830156   538A      1.832025  
     539A      1.836226   540A      1.838939   541A      1.846260  
     542A      1.854772   543A      1.860249   544A      1.864548  
     545A      1.868740   546A      1.871924   547A      1.876894  
     548A      1.879258   549A      1.880689   550A      1.887132  
     551A      1.889518   552A      1.896907   553A      1.899751  
     554A      1.903313   555A      1.911980   556A      1.917665  
     557A      1.922121   558A      1.924338   559A      1.930774  
     560A      1.934956   561A      1.938672   562A      1.939448  
     563A      1.944943   564A      1.951761   565A      1.956477  
     566A      1.963010   567A      1.971792   568A      1.976830  
     569A      1.981604   570A      1.982275   571A      1.987777  
     572A      1.994334   573A      1.996586   574A      2.002491  
     575A      2.004964   576A      2.012048   577A      2.015802  
     578A      2.019399   579A      2.024458   580A      2.028788  
     581A      2.031717   582A      2.037747   583A      2.038067  
     584A      2.053545   585A      2.058760   586A      2.066364  
     587A      2.067348   588A      2.072694   589A      2.081800  
     590A      2.086002   591A      2.091327   592A      2.093776  
     593A      2.104401   594A      2.111017   595A      2.114696  
     596A      2.120047   597A      2.120395   598A      2.128036  
     599A      2.134037   600A      2.141168   601A      2.148425  
     602A      2.161279   603A      2.164544   604A      2.167143  
     605A      2.169306   606A      2.172990   607A      2.178009  
     608A      2.187926   609A      2.190177   610A      2.198786  
     611A      2.201654   612A      2.210931   613A      2.220920  
     614A      2.226790   615A      2.230986   616A      2.238945  
     617A      2.242935   618A      2.245909   619A      2.253982  
     620A      2.255181   621A      2.258846   622A      2.269108  
     623A      2.271773   624A      2.274416   625A      2.284148  
     626A      2.286421   627A      2.293996   628A      2.307354  
     629A      2.308383   630A      2.313207   631A      2.321438  
     632A      2.329806   633A      2.336443   634A      2.338177  
     635A      2.344856   636A      2.345827   637A      2.361495  
     638A      2.366587   639A      2.380091   640A      2.388074  
     641A      2.391386   642A      2.405836   643A      2.412515  
     644A      2.417903   645A      2.425674   646A      2.434997  
     647A      2.435915   648A      2.439829   649A      2.449218  
     650A      2.453948   651A      2.462671   652A      2.472827  
     653A      2.476143   654A      2.482147   655A      2.489081  
     656A      2.503265   657A      2.506239   658A      2.516054  
     659A      2.522355   660A      2.528710   661A      2.542048  
     662A      2.543716   663A      2.549216   664A      2.557592  
     665A      2.572113   666A      2.579606   667A      2.589052  
     668A      2.592457   669A      2.596896   670A      2.605725  
     671A      2.607563   672A      2.617971   673A      2.624293  
     674A      2.633930   675A      2.638891   676A      2.646701  
     677A      2.649643   678A      2.662199   679A      2.667717  
     680A      2.669707   681A      2.684311   682A      2.685506  
     683A      2.690862   684A      2.692781   685A      2.702208  
     686A      2.711586   687A      2.721009   688A      2.725079  
     689A      2.731645   690A      2.741462   691A      2.749336  
     692A      2.756239   693A      2.766824   694A      2.777831  
     695A      2.784903   696A      2.791939   697A      2.797018  
     698A      2.801324   699A      2.806252   700A      2.818251  
     701A      2.820798   702A      2.830090   703A      2.841101  
     704A      2.858455   705A      2.863222   706A      2.866802  
     707A      2.877809   708A      2.880752   709A      2.889293  
     710A      2.900742   711A      2.904280   712A      2.911007  
     713A      2.918309   714A      2.925071   715A      2.941800  
     716A      2.943883   717A      2.955821   718A      2.965353  
     719A      2.965655   720A      2.979639   721A      2.985124  
     722A      2.989130   723A      2.990782   724A      2.999423  
     725A      3.010070   726A      3.017495   727A      3.026183  
     728A      3.035617   729A      3.041212   730A      3.053663  
     731A      3.057637   732A      3.067332   733A      3.079011  
     734A      3.088406   735A      3.100557   736A      3.109723  
     737A      3.113638   738A      3.116567   739A      3.126315  
     740A      3.130413   741A      3.135000   742A      3.145105  
     743A      3.160300   744A      3.161393   745A      3.169491  
     746A      3.176506   747A      3.193032   748A      3.193903  
     749A      3.201551   750A      3.206246   751A      3.213981  
     752A      3.217861   753A      3.225640   754A      3.238811  
     755A      3.249933   756A      3.258155   757A      3.269924  
     758A      3.270997   759A      3.278812   760A      3.284720  
     761A      3.289595   762A      3.299058   763A      3.305206  
     764A      3.314078   765A      3.323339   766A      3.327529  
     767A      3.331416   768A      3.347351   769A      3.352670  
     770A      3.358334   771A      3.372083   772A      3.380670  
     773A      3.384382   774A      3.394740   775A      3.405584  
     776A      3.410166   777A      3.421877   778A      3.431230  
     779A      3.440949   780A      3.452155   781A      3.453440  
     782A      3.462835   783A      3.473800   784A      3.481883  
     785A      3.489651   786A      3.498529   787A      3.506761  
     788A      3.515860   789A      3.524320   790A      3.544830  
     791A      3.558953   792A      3.564071   793A      3.580921  
     794A      3.590657   795A      3.601996   796A      3.618565  
     797A      3.623149   798A      3.648872   799A      3.654785  
     800A      3.662385   801A      3.671865   802A      3.684165  
     803A      3.685686   804A      3.701834   805A      3.710389  
     806A      3.725123   807A      3.729348   808A      3.734056  
     809A      3.740556   810A      3.748221   811A      3.758743  
     812A      3.769976   813A      3.784267   814A      3.792314  
     815A      3.801139   816A      3.812571   817A      3.820910  
     818A      3.828702   819A      3.839557   820A      3.847360  
     821A      3.855960   822A      3.865902   823A      3.876217  
     824A      3.881330   825A      3.883607   826A      3.905805  
     827A      3.913381   828A      3.914671   829A      3.929483  
     830A      3.931097   831A      3.938238   832A      3.955263  
     833A      3.965831   834A      3.972134   835A      3.980642  
     836A      3.986966   837A      3.999569   838A      4.004467  
     839A      4.010112   840A      4.011979   841A      4.034053  
     842A      4.042959   843A      4.046218   844A      4.053968  
     845A      4.064875   846A      4.071754   847A      4.077534  
     848A      4.084019   849A      4.092161   850A      4.097120  
     851A      4.104382   852A      4.114849   853A      4.118286  
     854A      4.132678   855A      4.135582   856A      4.142106  
     857A      4.145789   858A      4.164242   859A      4.169431  
     860A      4.173643   861A      4.183464   862A      4.185943  
     863A      4.193552   864A      4.196008   865A      4.206862  
     866A      4.214405   867A      4.223662   868A      4.234867  
     869A      4.241182   870A      4.247381   871A      4.249168  
     872A      4.255083   873A      4.268619   874A      4.275422  
     875A      4.279476   876A      4.290382   877A      4.296317  
     878A      4.300651   879A      4.309951   880A      4.313400  
     881A      4.329291   882A      4.337755   883A      4.346134  
     884A      4.348503   885A      4.361054   886A      4.366843  
     887A      4.382810   888A      4.387925   889A      4.389058  
     890A      4.399858   891A      4.408304   892A      4.415705  
     893A      4.432350   894A      4.439691   895A      4.449734  
     896A      4.454223   897A      4.461138   898A      4.470813  
     899A      4.475084   900A      4.482074   901A      4.493757  
     902A      4.495532   903A      4.501296   904A      4.508055  
     905A      4.530683   906A      4.535015   907A      4.542290  
     908A      4.550684   909A      4.564117   910A      4.564635  
     911A      4.574001   912A      4.587871   913A      4.594714  
     914A      4.598419   915A      4.600645   916A      4.607066  
     917A      4.624073   918A      4.633667   919A      4.637957  
     920A      4.651828   921A      4.652919   922A      4.666319  
     923A      4.670251   924A      4.689563   925A      4.696410  
     926A      4.699807   927A      4.707514   928A      4.721314  
     929A      4.734690   930A      4.739525   931A      4.752695  
     932A      4.756055   933A      4.768431   934A      4.777829  
     935A      4.787577   936A      4.797464   937A      4.810167  
     938A      4.820137   939A      4.823807   940A      4.837615  
     941A      4.843558   942A      4.847557   943A      4.857113  
     944A      4.867639   945A      4.874022   946A      4.879382  
     947A      4.889092   948A      4.897206   949A      4.904697  
     950A      4.915332   951A      4.924316   952A      4.935734  
     953A      4.939327   954A      4.960275   955A      4.967147  
     956A      4.976491   957A      4.984851   958A      4.995490  
     959A      5.006102   960A      5.013128   961A      5.022657  
     962A      5.031187   963A      5.044394   964A      5.046330  
     965A      5.058342   966A      5.070262   967A      5.079601  
     968A      5.090976   969A      5.091523   970A      5.095405  
     971A      5.106743   972A      5.116228   973A      5.128367  
     974A      5.129471   975A      5.132578   976A      5.143173  
     977A      5.157013   978A      5.163944   979A      5.180227  
     980A      5.184027   981A      5.188435   982A      5.204330  
     983A      5.212740   984A      5.217512   985A      5.225651  
     986A      5.241154   987A      5.251334   988A      5.258115  
     989A      5.266234   990A      5.274975   991A      5.279953  
     992A      5.288090   993A      5.300701   994A      5.309940  
     995A      5.317945   996A      5.319144   997A      5.329851  
     998A      5.340680   999A      5.354131  1000A      5.359319  
    1001A      5.363606  1002A      5.371706  1003A      5.378173  
    1004A      5.388868  1005A      5.395792  1006A      5.399134  
    1007A      5.418309  1008A      5.428419  1009A      5.437606  
    1010A      5.445183  1011A      5.458414  1012A      5.460247  
    1013A      5.464185  1014A      5.475505  1015A      5.478803  
    1016A      5.495463  1017A      5.511759  1018A      5.516839  
    1019A      5.537698  1020A      5.544269  1021A      5.549054  
    1022A      5.553845  1023A      5.565695  1024A      5.576285  
    1025A      5.589327  1026A      5.595783  1027A      5.605872  
    1028A      5.615081  1029A      5.617616  1030A      5.629153  
    1031A      5.632903  1032A      5.659526  1033A      5.667911  
    1034A      5.679192  1035A      5.687978  1036A      5.702503  
    1037A      5.720316  1038A      5.726002  1039A      5.742054  
    1040A      5.748408  1041A      5.759349  1042A      5.765474  
    1043A      5.772267  1044A      5.792538  1045A      5.800396  
    1046A      5.809482  1047A      5.815996  1048A      5.820861  
    1049A      5.843208  1050A      5.847662  1051A      5.870856  
    1052A      5.888205  1053A      5.898427  1054A      5.912423  
    1055A      5.932709  1056A      5.961906  1057A      5.979075  
    1058A      6.015380  1059A      6.035826  1060A      6.046361  
    1061A      6.058645  1062A      6.082179  1063A      6.090705  
    1064A      6.102943  1065A      6.122360  1066A      6.159945  
    1067A      6.177215  1068A      6.204512  1069A      6.211735  
    1070A      6.223524  1071A      6.255255  1072A      6.286127  
    1073A      6.329596  1074A      6.356813  1075A      6.367353  
    1076A      6.387177  1077A      6.396257  1078A      6.415050  
    1079A      6.453725  1080A      6.476216  1081A      6.493720  
    1082A      6.529537  1083A      6.555224  1084A      6.726397  
    1085A      6.734584  1086A      6.762181  1087A      6.768978  
    1088A      6.771565  1089A      6.790682  1090A      6.794509  
    1091A      6.796144  1092A      6.823897  1093A      6.837631  
    1094A      6.852293  1095A      6.858904  1096A      6.867604  
    1097A      6.879570  1098A      6.882815  1099A      6.889094  
    1100A      6.902138  1101A      6.927192  1102A      6.936753  
    1103A      6.950531  1104A      6.963758  1105A      6.972342  
    1106A      6.987359  1107A      6.994113  1108A      7.008835  
    1109A      7.019858  1110A      7.028024  1111A      7.036124  
    1112A      7.044202  1113A      7.056463  1114A      7.059295  
    1115A      7.069232  1116A      7.084909  1117A      7.097676  
    1118A      7.106707  1119A      7.129666  1120A      7.131799  
    1121A      7.145558  1122A      7.152689  1123A      7.170060  
    1124A      7.178754  1125A      7.182989  1126A      7.187320  
    1127A      7.196994  1128A      7.200613  1129A      7.211460  
    1130A      7.228850  1131A      7.233469  1132A      7.280320  
    1133A      7.293152  1134A      7.307313  1135A      7.326283  
    1136A      7.346722  1137A      7.352103  1138A      7.360237  
    1139A      7.368177  1140A      7.374567  1141A      7.384809  
    1142A      7.397664  1143A      7.411075  1144A      7.417599  
    1145A      7.433359  1146A      7.440418  1147A      7.446925  
    1148A      7.460770  1149A      7.480596  1150A      7.485999  
    1151A      7.496074  1152A      7.526874  1153A      7.534778  
    1154A      7.546255  1155A      7.556947  1156A      7.571210  
    1157A      7.584228  1158A      7.592853  1159A      7.595453  
    1160A      7.616432  1161A      7.635062  1162A      7.642053  
    1163A      7.657151  1164A      7.667337  1165A      7.679164  
    1166A      7.701746  1167A      7.712904  1168A      7.743554  
    1169A      7.755109  1170A      7.778443  1171A      7.783512  
    1172A      7.795957  1173A      7.821880  1174A      7.846759  
    1175A      7.849630  1176A      7.856878  1177A      7.882609  
    1178A      7.901443  1179A      7.917565  1180A      7.932351  
    1181A      7.939189  1182A      7.946917  1183A      7.969428  
    1184A      7.982612  1185A      8.015647  1186A      8.100273  
    1187A      8.114091  1188A      8.132276  1189A      8.166554  
    1190A      8.174089  1191A      8.200465  1192A      8.208339  
    1193A      8.255639  1194A      8.302410  1195A      8.340726  
    1196A      8.362480  1197A      8.366155  1198A      8.387911  
    1199A      8.400182  1200A      8.426149  1201A      8.696710  
    1202A      8.715663  1203A      8.752984  1204A      8.775096  
    1205A      8.798812  1206A     11.810595  1207A     13.640074  
    1208A     15.240498  1209A     15.855336  1210A     16.835827  
    1211A     16.904123  1212A     17.189432  1213A     17.250865  
    1214A     17.537949  1215A     17.731507  1216A     18.181441  
    1217A     18.889939  1218A     19.191572  1219A     19.566974  
    1220A     19.694294  1221A     19.793421  1222A     20.134269  
    1223A     20.705084  

    Final Occupation by Irrep:
              A 
    DOCC [    76 ]

  @DF-RHF Final Energy: -1327.84549823564339

   => Energetics <=

    Nuclear Repulsion Energy =           1771.5811568056046781
    One-Electron Energy =               -5355.3451137928932440
    Two-Electron Energy =                2255.9184587516451757
    Total Energy =                      -1327.8454982356433902

Computation Completed

*** tstop() called on node91.bme.utexas.edu at Fri Nov  6 18:09:07 2020
Module time:
	user time   =    3003.64 seconds =      50.06 minutes
	system time =      18.77 seconds =       0.31 minutes
	total time  =        407 seconds =       6.78 minutes
Total time:
	user time   =    3003.64 seconds =      50.06 minutes
	system time =      18.77 seconds =       0.31 minutes
	total time  =        407 seconds =       6.78 minutes
   => Loading Basis Set <=

    Name: (AUG-CC-PVTZ AUX)
    Role: RIFIT
    Keyword: DF_BASIS_MP2
    atoms 1     entry P          line   590 file /home/xy3866/psi4conda/share/psi4/basis/aug-cc-pvtz-ri.gbs 
    atoms 2-10  entry O          line   264 file /home/xy3866/psi4conda/share/psi4/basis/aug-cc-pvtz-ri.gbs 
    atoms 11-18 entry C          line   148 file /home/xy3866/psi4conda/share/psi4/basis/aug-cc-pvtz-ri.gbs 
    atoms 19-35 entry H          line    30 file /home/xy3866/psi4conda/share/psi4/basis/aug-cc-pvtz-ri.gbs 


*** tstart() called on node91.bme.utexas.edu
*** at Fri Nov  6 18:09:07 2020


  //>>>>>>>>>>>>>>>>>>>>>>>>>>>>>>>>>>>//
  //               DFMP2               //
  //<<<<<<<<<<<<<<<<<<<<<<<<<<<<<<<<<<<//

	 --------------------------------------------------------
	                          DF-MP2                         
	      2nd-Order Density-Fitted Moller-Plesset Theory     
	              RMP2 Wavefunction,   8 Threads             
	                                                         
	        Rob Parrish, Justin Turney, Andy Simmonett,      
	           Ed Hohenstein, and C. David Sherrill          
	 --------------------------------------------------------

   => Auxiliary Basis Set <=

  Basis Set: (AUG-CC-PVTZ AUX)
    Blend: AUG-CC-PVTZ-RI
    Number of shells: 751
    Number of basis function: 2731
    Number of Cartesian functions: 3438
    Spherical Harmonics?: true
    Max angular momentum: 4

	 --------------------------------------------------------
	                 NBF =  1223, NAUX =  2731
	 --------------------------------------------------------
	   CLASS    FOCC     OCC    AOCC    AVIR     VIR    FVIR
	   PAIRS       0      76      76    1147    1147       0
	 --------------------------------------------------------


         ------------------------------------------------------------
                                     CPHF                           
                                  Rob Parrish                       
         ------------------------------------------------------------

  ==> Geometry <==

    Molecular point group: c1
    Full point group: C1

    Geometry (in Angstrom), charge = 0, multiplicity = 1:

       Center              X                  Y                   Z               Mass       
    ------------   -----------------  -----------------  -----------------  -----------------
         P           -2.323103916328    -0.936461736495     0.410736673921    30.973761998420
         O           -0.979967516328    -0.203512936495     0.927664073921    15.994914619570
         O            1.344435483672    -1.677433936495     1.220226073921    15.994914619570
         O            0.080890483672     2.357653063505     0.451543073921    15.994914619570
         O            3.070700483672    -2.189022936495    -0.819214926079    15.994914619570
         O            2.849520483672     2.501162063505     0.360910073921    15.994914619570
         O            4.197873483672     0.433446063505    -0.983498926079    15.994914619570
         O           -2.824677516328     0.031400063505    -0.818155926079    15.994914619570
         O           -3.256935516328    -0.725232936495     1.611046073921    15.994914619570
         O           -2.116807516328    -2.345594936495    -0.110292926079    15.994914619570
         C            0.158724883672     0.060611463505     0.062814473921    12.000000000000
         C            0.955477483672    -1.246155936495    -0.086349926079    12.000000000000
         C            0.900774483672     1.200693063505     0.554226073921    12.000000000000
         C            2.261845483672    -1.016257936495    -0.828661926079    12.000000000000
         C            2.179260483672     1.394521063505    -0.238665926079    12.000000000000
         C            3.028027483672     0.146754063505    -0.220946926079    12.000000000000
         C           -3.122027516328     1.429647063505    -0.499510926079    12.000000000000
         C           -3.534131516328     2.083214063505    -1.794743926079    12.000000000000
         H           -0.280906516328     0.296850063505    -0.980862926079     1.007825032230
         H            0.372454483672    -2.031314936495    -0.582656926079     1.007825032230
         H            1.159305483672     0.995926063505     1.601531073921     1.007825032230
         H            2.063119483672    -0.790610936495    -1.883380926079     1.007825032230
         H            1.919172483672     1.634336063505    -1.284207926079     1.007825032230
         H            3.298040483672    -0.096482936495     0.817021073921     1.007825032230
         H            0.523960483672    -1.889982936495     1.700885073921     1.007825032230
         H            0.667725483672     3.107360063505     0.672559073921     1.007825032230
         H            2.975728483672    -2.549324936495     0.084029073921     1.007825032230
         H            3.723614483672     2.547235063505    -0.069493926079     1.007825032230
         H            4.641912483672    -0.425784936495    -1.107711926079     1.007825032230
         H           -3.806209516328    -1.524288936495     1.724103073921     1.007825032230
         H           -3.928360516328     1.443590063505     0.238761073921     1.007825032230
         H           -2.227576516328     1.890929063505    -0.069720926079     1.007825032230
         H           -3.798335516328     3.128931063505    -1.613295926079     1.007825032230
         H           -2.715010516328     2.051372063505    -2.515499926079     1.007825032230
         H           -4.398758516328     1.572372063505    -2.223348926079     1.007825032230

  Nuclear repulsion = 1771.581156805604678
  Reference energy  = -1327.845498235643390

  ==> Basis Set <==

  Basis Set: AUG-CC-PVTZ
    Blend: AUG-CC-PVTZ
    Number of shells: 407
    Number of basis function: 1223
    Number of Cartesian functions: 1419
    Spherical Harmonics?: true
    Max angular momentum: 3

  ==> CGRSolver (by Rob Parrish) <==

   Number of roots    =         1
   Preconditioning    =    JACOBI
   Convergence cutoff =     1E-06
   Maximum iterations =       100

  ==> CPHFRHamiltonian (by Rob Parrish) <== 

  ==> DiskDFJK: Density-Fitted J/K Matrices <==

    J tasked:                  Yes
    K tasked:                  Yes
    wK tasked:                  No
    OpenMP threads:              8
    Integrals threads:           8
    Memory [MiB]:            22888
    Algorithm:                Core
    Integral Cache:           NONE
    Schwarz Cutoff:          1E-12
    Fitting Condition:       1E-10

   => Auxiliary Basis Set <=

  Basis Set: (AUG-CC-PVTZ AUX)
    Blend: AUG-CC-PVTZ-JKFIT
    Number of shells: 790
    Number of basis function: 2696
    Number of Cartesian functions: 3342
    Spherical Harmonics?: true
    Max angular momentum: 4

  ==> CPHF Iterations <==

  => Iterations <=

             Iter  Converged  Remaining    Residual
  CGR           1          0          1   8.224E-02
  CGR           2          0          1   1.895E-02
  CGR           3          0          1   7.441E-03
  CGR           4          0          1   2.226E-03
  CGR           5          0          1   8.126E-04
  CGR           6          0          1   2.420E-04
  CGR           7          0          1   8.616E-05
  CGR           8          0          1   2.809E-05
  CGR           9          0          1   9.029E-06
  CGR          10          0          1   3.103E-06
  CGR          11          1          0   8.825E-07

    CGRSolver converged.

	-----------------------------------------------------------
	 ==================> DF-MP2 Energies <==================== 
	-----------------------------------------------------------
	 Reference Energy          =   -1327.8454982356433902 [Eh]
	 Singles Energy            =      -0.0000000000000000 [Eh]
	 Same-Spin Energy          =      -1.0155168214542927 [Eh]
	 Opposite-Spin Energy      =      -3.0770479010611882 [Eh]
	 Correlation Energy        =      -4.0925647225154806 [Eh]
	 Total Energy              =   -1331.9380629581589801 [Eh]
	-----------------------------------------------------------
	 ================> DF-SCS-MP2 Energies <================== 
	-----------------------------------------------------------
	 SCS Same-Spin Scale       =       0.3333333333333333 [-]
	 SCS Opposite-Spin Scale   =       1.2000000000000000 [-]
	 SCS Same-Spin Energy      =      -0.3385056071514309 [Eh]
	 SCS Opposite-Spin Energy  =      -3.6924574812734257 [Eh]
	 SCS Correlation Energy    =      -4.0309630884248566 [Eh]
	 SCS Total Energy          =   -1331.8764613240682593 [Eh]
	-----------------------------------------------------------



Properties will be evaluated at  -0.000000,   0.000000,  -0.000000 [a0]

Properties computed using the MP2 density matrix

  Nuclear Dipole Moment: [e a0]
     X:     2.3268      Y:     9.6286      Z:    -5.5170

  Electronic Dipole Moment: [e a0]
     X:    -2.8723      Y:    -8.9244      Z:     6.0991

  Dipole Moment: [e a0]
     X:    -0.5455      Y:     0.7042      Z:     0.5821     Total:     1.0641

  Dipole Moment: [D]
     X:    -1.3864      Y:     1.7900      Z:     1.4796     Total:     2.7047


*** tstop() called on node91.bme.utexas.edu at Fri Nov  6 18:46:48 2020
Module time:
	user time   =   13231.46 seconds =     220.52 minutes
	system time =     137.81 seconds =       2.30 minutes
	total time  =       2261 seconds =      37.68 minutes
Total time:
	user time   =   16235.95 seconds =     270.60 minutes
	system time =     156.61 seconds =       2.61 minutes
	total time  =       2668 seconds =      44.47 minutes

    Psi4 stopped on: Friday, 06 November 2020 06:46PM
    Psi4 wall time for execution: 0:44:29.41

*** Psi4 exiting successfully. Buy a developer a beer!
