
    -----------------------------------------------------------------------
          Psi4: An Open-Source Ab Initio Electronic Structure Package
                               Psi4 1.3.2 release

                         Git: Rev {HEAD} ecbda83 


    R. M. Parrish, L. A. Burns, D. G. A. Smith, A. C. Simmonett,
    A. E. DePrince III, E. G. Hohenstein, U. Bozkaya, A. Yu. Sokolov,
    R. Di Remigio, R. M. Richard, J. F. Gonthier, A. M. James,
    H. R. McAlexander, A. Kumar, M. Saitow, X. Wang, B. P. Pritchard,
    P. Verma, H. F. Schaefer III, K. Patkowski, R. A. King, E. F. Valeev,
    F. A. Evangelista, J. M. Turney, T. D. Crawford, and C. D. Sherrill,
    J. Chem. Theory Comput. 13(7) pp 3185--3197 (2017).
    (doi: 10.1021/acs.jctc.7b00174)


                         Additional Contributions by
    P. Kraus, H. Kruse, M. H. Lechner, M. C. Schieber, R. A. Shaw,
    A. Alenaizan, R. Galvelis, Z. L. Glick, S. Lehtola, and J. P. Misiewicz

    -----------------------------------------------------------------------


    Psi4 started on: Friday, 06 November 2020 10:10PM

    Process ID: 88956
    Host:       node92.bme.utexas.edu
    PSIDATADIR: /home/xy3866/psi4conda/share/psi4
    Memory:     500.0 MiB
    Threads:    8
    
  ==> Input File <==

--------------------------------------------------------------------------
#psi4
#
memory 32 gb

molecule  {
0 1
  P       -2.2900960    -0.9400430     0.3446780
  O       -0.9821530    -0.2015620     0.9382890
  O        1.3422500    -1.6754830     1.2308510
  O        0.0787050     2.3596040     0.4621680
  O        3.0685150    -2.1870720    -0.8085900
  O        2.8473350     2.5031130     0.3715350
  O        4.1956880     0.4353970    -0.9728740
  O       -2.8268630     0.0333510    -0.8075310
  O       -3.2591210    -0.7232820     1.6216710
  O       -2.1189930    -2.3436440    -0.0996680
  C        0.1181620     0.0300090     0.0163190
  C        1.0627253    -1.4111747    -0.0877862
  C        0.8985890     1.2026440     0.5648510
  C        2.2596600    -1.0143070    -0.8180370
  C        2.1770750     1.3964720    -0.2280410
  C        3.0258420     0.1487050    -0.2103220
  C       -3.1242130     1.4315980    -0.4888860
  C       -3.5363170     2.0851650    -1.7841190
  H       -0.2830920     0.2988010    -0.9702380
  H        0.3702690    -2.0293640    -0.5720320
  H        1.1571200     0.9978770     1.6121560
  H        2.0609340    -0.7886600    -1.8727560
  H        1.9169870     1.6362870    -1.2735830
  H        3.2958550    -0.0945320     0.8276460
  H        0.5217750    -1.8880320     1.7115100
  H        0.6655400     3.1093110     0.6831840
  H        2.9735430    -2.5473740     0.0946540
  H        3.7214290     2.5491860    -0.0588690
  H        4.6397270    -0.4238340    -1.0970870
  H       -3.8083950    -1.5223380     1.7347280
  H       -3.9305460     1.4455410     0.2493860
  H       -2.2297620     1.8928800    -0.0590960
  H       -3.8005210     3.1308820    -1.6026710
  H       -2.7171960     2.0533230    -2.5048750
  H       -4.4009440     1.5743230    -2.2127240
units angstrom
no_reorient  #important for SAPT in psi4, default
symmetry c1  #important for SAPT in psi4, default
}

set PROPERTIES_ORIGIN ["COM"]
properties('MP2/aug-cc-pvtz', properties = ['dipole'])
--------------------------------------------------------------------------

  Memory set to  29.802 GiB by Python driver.
    SCF Algorithm Type (re)set to DF.

*** tstart() called on node92.bme.utexas.edu
*** at Fri Nov  6 22:10:48 2020

   => Loading Basis Set <=

    Name: AUG-CC-PVTZ
    Role: ORBITAL
    Keyword: BASIS
    atoms 1     entry P          line   820 file /home/xy3866/psi4conda/share/psi4/basis/aug-cc-pvtz.gbs 
    atoms 2-10  entry O          line   327 file /home/xy3866/psi4conda/share/psi4/basis/aug-cc-pvtz.gbs 
    atoms 11-18 entry C          line   235 file /home/xy3866/psi4conda/share/psi4/basis/aug-cc-pvtz.gbs 
    atoms 19-35 entry H          line    36 file /home/xy3866/psi4conda/share/psi4/basis/aug-cc-pvtz.gbs 


         ---------------------------------------------------------
                                   SCF
               by Justin Turney, Rob Parrish, Andy Simmonett
                          and Daniel G. A. Smith
                              RHF Reference
                        8 Threads,  30517 MiB Core
         ---------------------------------------------------------

  ==> Geometry <==

    Molecular point group: c1
    Full point group: C1

    Geometry (in Angstrom), charge = 0, multiplicity = 1:

       Center              X                  Y                   Z               Mass       
    ------------   -----------------  -----------------  -----------------  -----------------
         P           -2.294654722127    -0.933087385188     0.345180434316    30.973761998420
         O           -0.986711722127    -0.194606385188     0.938791434316    15.994914619570
         O            1.337691277873    -1.668527385188     1.231353434316    15.994914619570
         O            0.074146277873     2.366559614812     0.462670434316    15.994914619570
         O            3.063956277873    -2.180116385188    -0.808087565684    15.994914619570
         O            2.842776277873     2.510068614812     0.372037434316    15.994914619570
         O            4.191129277873     0.442352614812    -0.972371565684    15.994914619570
         O           -2.831421722127     0.040306614812    -0.807028565684    15.994914619570
         O           -3.263679722127    -0.716326385188     1.622173434316    15.994914619570
         O           -2.123551722127    -2.336688385188    -0.099165565684    15.994914619570
         C            0.113603277873     0.036964614812     0.016821434316    12.000000000000
         C            1.058166577873    -1.404219085188    -0.087283765684    12.000000000000
         C            0.894030277873     1.209599614812     0.565353434316    12.000000000000
         C            2.255101277873    -1.007351385188    -0.817534565684    12.000000000000
         C            2.172516277873     1.403427614812    -0.227538565684    12.000000000000
         C            3.021283277873     0.155660614812    -0.209819565684    12.000000000000
         C           -3.128771722127     1.438553614812    -0.488383565684    12.000000000000
         C           -3.540875722127     2.092120614812    -1.783616565684    12.000000000000
         H           -0.287650722127     0.305756614812    -0.969735565684     1.007825032230
         H            0.365710277873    -2.022408385188    -0.571529565684     1.007825032230
         H            1.152561277873     1.004832614812     1.612658434316     1.007825032230
         H            2.056375277873    -0.781704385188    -1.872253565684     1.007825032230
         H            1.912428277873     1.643242614812    -1.273080565684     1.007825032230
         H            3.291296277873    -0.087576385188     0.828148434316     1.007825032230
         H            0.517216277873    -1.881076385188     1.712012434316     1.007825032230
         H            0.660981277873     3.116266614812     0.683686434316     1.007825032230
         H            2.968984277873    -2.540418385188     0.095156434316     1.007825032230
         H            3.716870277873     2.556141614812    -0.058366565684     1.007825032230
         H            4.635168277873    -0.416878385188    -1.096584565684     1.007825032230
         H           -3.812953722127    -1.515382385188     1.735230434316     1.007825032230
         H           -3.935104722127     1.452496614812     0.249888434316     1.007825032230
         H           -2.234320722127     1.899835614812    -0.058593565684     1.007825032230
         H           -3.805079722127     3.137837614812    -1.602168565684     1.007825032230
         H           -2.721754722127     2.060278614812    -2.504372565684     1.007825032230
         H           -4.405502722127     1.581278614812    -2.212221565684     1.007825032230

  Running in c1 symmetry.

  Rotational constants: A =      0.01962  B =      0.00841  C =      0.00685 [cm^-1]
  Rotational constants: A =    588.24147  B =    252.21316  C =    205.25547 [MHz]
  Nuclear repulsion = 1769.823094684774560

  Charge       = 0
  Multiplicity = 1
  Electrons    = 152
  Nalpha       = 76
  Nbeta        = 76

  ==> Algorithm <==

  SCF Algorithm Type is DF.
  DIIS enabled.
  MOM disabled.
  Fractional occupation disabled.
  Guess Type is SAD.
  Energy threshold   = 1.00e-10
  Density threshold  = 1.00e-10
  Integral threshold = 0.00e+00

  ==> Primary Basis <==

  Basis Set: AUG-CC-PVTZ
    Blend: AUG-CC-PVTZ
    Number of shells: 407
    Number of basis function: 1223
    Number of Cartesian functions: 1419
    Spherical Harmonics?: true
    Max angular momentum: 3

   => Loading Basis Set <=

    Name: (AUG-CC-PVTZ AUX)
    Role: JKFIT
    Keyword: DF_BASIS_SCF
    atoms 1     entry P          line   644 file /home/xy3866/psi4conda/share/psi4/basis/aug-cc-pvtz-jkfit.gbs 
    atoms 2-10  entry O          line   286 file /home/xy3866/psi4conda/share/psi4/basis/aug-cc-pvtz-jkfit.gbs 
    atoms 11-18 entry C          line   162 file /home/xy3866/psi4conda/share/psi4/basis/aug-cc-pvtz-jkfit.gbs 
    atoms 19-35 entry H          line    70 file /home/xy3866/psi4conda/share/psi4/basis/aug-cc-pvtz-jkfit.gbs 

  ==> Pre-Iterations <==

   -------------------------------------------------------
    Irrep   Nso     Nmo     Nalpha   Nbeta   Ndocc  Nsocc
   -------------------------------------------------------
     A       1223    1223       0       0       0       0
   -------------------------------------------------------
    Total    1223    1223      76      76      76       0
   -------------------------------------------------------

  ==> Integral Setup <==

  ==> DiskDFJK: Density-Fitted J/K Matrices <==

    J tasked:                  Yes
    K tasked:                  Yes
    wK tasked:                  No
    OpenMP threads:              8
    Integrals threads:           8
    Memory [MiB]:            22888
    Algorithm:                Core
    Integral Cache:           NONE
    Schwarz Cutoff:          1E-12
    Fitting Condition:       1E-10

   => Auxiliary Basis Set <=

  Basis Set: (AUG-CC-PVTZ AUX)
    Blend: AUG-CC-PVTZ-JKFIT
    Number of shells: 790
    Number of basis function: 2696
    Number of Cartesian functions: 3342
    Spherical Harmonics?: true
    Max angular momentum: 4

  Minimum eigenvalue in the overlap matrix is 9.0539866168E-07.
  Using Symmetric Orthogonalization.

  SCF Guess: Superposition of Atomic Densities via on-the-fly atomic UHF.

  ==> Iterations <==

                           Total Energy        Delta E     RMS |[F,P]|

   @DF-RHF iter SAD: -1327.12552492645614   -1.32713e+03   0.00000e+00 
   @DF-RHF iter   1: -1327.22162289068501   -9.60980e-02   9.37655e-04 DIIS
   @DF-RHF iter   2: -1327.68040651286833   -4.58784e-01   5.38067e-04 DIIS
   @DF-RHF iter   3: -1327.82361639330475   -1.43210e-01   9.05641e-05 DIIS
   @DF-RHF iter   4: -1327.83077245759159   -7.15606e-03   3.48928e-05 DIIS
   @DF-RHF iter   5: -1327.83165456818710   -8.82111e-04   8.17981e-06 DIIS
   @DF-RHF iter   6: -1327.83171691574967   -6.23476e-05   2.62817e-06 DIIS
   @DF-RHF iter   7: -1327.83172483656381   -7.92081e-06   8.52127e-07 DIIS
   @DF-RHF iter   8: -1327.83172580109658   -9.64533e-07   2.66964e-07 DIIS
   @DF-RHF iter   9: -1327.83172590498089   -1.03884e-07   8.99461e-08 DIIS
   @DF-RHF iter  10: -1327.83172591586981   -1.08889e-08   2.90086e-08 DIIS
   @DF-RHF iter  11: -1327.83172591689208   -1.02227e-09   9.35236e-09 DIIS
   @DF-RHF iter  12: -1327.83172591700713   -1.15051e-10   3.10452e-09 DIIS
   @DF-RHF iter  13: -1327.83172591702282   -1.56888e-11   9.36481e-10 DIIS
   @DF-RHF iter  14: -1327.83172591702169    1.13687e-12   4.02512e-10 DIIS
   @DF-RHF iter  15: -1327.83172591702441   -2.72848e-12   1.32105e-10 DIIS
   @DF-RHF iter  16: -1327.83172591701850    5.91172e-12   5.21531e-11 DIIS
  Energy and wave function converged.


  ==> Post-Iterations <==

    Orbital Energies [Eh]
    ---------------------

    Doubly Occupied:                                                      

       1A    -80.115103     2A    -20.613417     3A    -20.603561  
       4A    -20.596702     5A    -20.590424     6A    -20.576949  
       7A    -20.575637     8A    -20.572003     9A    -20.570013  
      10A    -20.523053    11A    -11.314124    12A    -11.308311  
      13A    -11.297977    14A    -11.297383    15A    -11.295412  
      16A    -11.294444    17A    -11.294136    18A    -11.228252  
      19A     -7.630536    20A     -5.529043    21A     -5.528657  
      22A     -5.527500    23A     -1.457036    24A     -1.422850  
      25A     -1.397855    26A     -1.392318    27A     -1.385044  
      28A     -1.376188    29A     -1.366107    30A     -1.354581  
      31A     -1.303191    32A     -1.108084    33A     -1.038553  
      34A     -1.011523    35A     -0.994953    36A     -0.884387  
      37A     -0.864642    38A     -0.852735    39A     -0.820491  
      40A     -0.812325    41A     -0.755847    42A     -0.746352  
      43A     -0.730807    44A     -0.725129    45A     -0.704020  
      46A     -0.692479    47A     -0.687238    48A     -0.674623  
      49A     -0.663845    50A     -0.660063    51A     -0.640552  
      52A     -0.634464    53A     -0.629024    54A     -0.616850  
      55A     -0.601684    56A     -0.599999    57A     -0.581276  
      58A     -0.573809    59A     -0.570306    60A     -0.561886  
      61A     -0.556012    62A     -0.549788    63A     -0.543136  
      64A     -0.540483    65A     -0.530116    66A     -0.522036  
      67A     -0.512091    68A     -0.507949    69A     -0.496538  
      70A     -0.479989    71A     -0.477390    72A     -0.472817  
      73A     -0.458138    74A     -0.454815    75A     -0.444050  
      76A     -0.409848  

    Virtual:                                                              

      77A      0.024868    78A      0.029777    79A      0.031807  
      80A      0.035756    81A      0.041513    82A      0.042879  
      83A      0.046845    84A      0.051521    85A      0.054279  
      86A      0.059854    87A      0.061993    88A      0.064228  
      89A      0.072423    90A      0.074282    91A      0.075926  
      92A      0.087873    93A      0.091102    94A      0.093928  
      95A      0.103371    96A      0.105807    97A      0.112005  
      98A      0.115031    99A      0.117989   100A      0.119863  
     101A      0.121009   102A      0.125592   103A      0.128078  
     104A      0.130740   105A      0.133444   106A      0.140956  
     107A      0.143166   108A      0.145010   109A      0.148403  
     110A      0.150619   111A      0.153091   112A      0.154001  
     113A      0.158077   114A      0.161308   115A      0.164776  
     116A      0.168711   117A      0.171178   118A      0.173095  
     119A      0.176043   120A      0.179418   121A      0.181356  
     122A      0.190123   123A      0.193321   124A      0.196934  
     125A      0.207007   126A      0.210520   127A      0.214991  
     128A      0.219700   129A      0.220868   130A      0.224727  
     131A      0.229547   132A      0.233437   133A      0.234890  
     134A      0.238392   135A      0.240346   136A      0.242874  
     137A      0.244737   138A      0.250954   139A      0.254222  
     140A      0.255346   141A      0.258450   142A      0.259644  
     143A      0.262159   144A      0.269609   145A      0.269961  
     146A      0.271966   147A      0.277747   148A      0.279813  
     149A      0.281562   150A      0.285008   151A      0.288677  
     152A      0.292534   153A      0.292965   154A      0.295692  
     155A      0.299956   156A      0.301805   157A      0.304796  
     158A      0.311093   159A      0.312646   160A      0.314518  
     161A      0.317117   162A      0.322345   163A      0.325037  
     164A      0.328552   165A      0.330236   166A      0.335228  
     167A      0.336107   168A      0.338728   169A      0.343748  
     170A      0.345511   171A      0.349656   172A      0.352870  
     173A      0.357577   174A      0.359623   175A      0.361160  
     176A      0.363363   177A      0.366321   178A      0.369607  
     179A      0.376019   180A      0.378450   181A      0.384169  
     182A      0.385892   183A      0.387699   184A      0.390282  
     185A      0.393180   186A      0.393821   187A      0.399675  
     188A      0.402258   189A      0.403249   190A      0.406617  
     191A      0.409094   192A      0.414021   193A      0.418561  
     194A      0.422908   195A      0.425711   196A      0.427692  
     197A      0.431762   198A      0.433590   199A      0.439385  
     200A      0.440636   201A      0.444307   202A      0.445420  
     203A      0.448314   204A      0.451430   205A      0.453253  
     206A      0.455081   207A      0.459310   208A      0.462354  
     209A      0.466501   210A      0.467581   211A      0.471629  
     212A      0.474036   213A      0.476772   214A      0.478731  
     215A      0.483868   216A      0.487119   217A      0.489743  
     218A      0.494721   219A      0.495863   220A      0.499265  
     221A      0.500359   222A      0.504777   223A      0.508049  
     224A      0.512482   225A      0.517916   226A      0.518550  
     227A      0.521873   228A      0.524007   229A      0.527873  
     230A      0.530477   231A      0.531404   232A      0.535097  
     233A      0.541488   234A      0.542455   235A      0.548729  
     236A      0.551314   237A      0.553043   238A      0.556096  
     239A      0.557278   240A      0.559848   241A      0.562994  
     242A      0.567010   243A      0.569864   244A      0.570387  
     245A      0.574449   246A      0.578352   247A      0.580963  
     248A      0.585540   249A      0.590029   250A      0.591284  
     251A      0.598577   252A      0.599356   253A      0.601254  
     254A      0.607087   255A      0.609847   256A      0.612950  
     257A      0.614965   258A      0.617856   259A      0.627379  
     260A      0.628241   261A      0.632257   262A      0.633195  
     263A      0.637367   264A      0.640006   265A      0.647884  
     266A      0.651177   267A      0.652938   268A      0.656288  
     269A      0.658428   270A      0.663629   271A      0.668584  
     272A      0.675175   273A      0.678152   274A      0.680097  
     275A      0.683575   276A      0.687550   277A      0.692841  
     278A      0.693750   279A      0.701746   280A      0.706428  
     281A      0.710010   282A      0.717458   283A      0.726102  
     284A      0.729239   285A      0.729823   286A      0.733453  
     287A      0.738610   288A      0.742506   289A      0.752048  
     290A      0.753563   291A      0.755796   292A      0.760772  
     293A      0.770846   294A      0.775886   295A      0.780244  
     296A      0.785293   297A      0.788977   298A      0.790078  
     299A      0.801198   300A      0.803904   301A      0.810560  
     302A      0.812874   303A      0.819815   304A      0.823200  
     305A      0.825141   306A      0.827778   307A      0.837729  
     308A      0.841065   309A      0.842969   310A      0.844829  
     311A      0.849624   312A      0.850899   313A      0.855594  
     314A      0.865262   315A      0.871124   316A      0.877242  
     317A      0.879406   318A      0.881094   319A      0.887858  
     320A      0.891786   321A      0.895659   322A      0.900747  
     323A      0.904774   324A      0.908210   325A      0.910072  
     326A      0.912792   327A      0.918281   328A      0.922722  
     329A      0.923684   330A      0.930737   331A      0.937769  
     332A      0.938386   333A      0.938720   334A      0.943080  
     335A      0.945576   336A      0.948706   337A      0.953149  
     338A      0.957737   339A      0.959507   340A      0.968647  
     341A      0.969499   342A      0.973948   343A      0.975297  
     344A      0.979127   345A      0.984001   346A      0.990271  
     347A      0.993404   348A      0.995133   349A      1.001325  
     350A      1.003166   351A      1.005558   352A      1.008865  
     353A      1.015238   354A      1.018643   355A      1.021438  
     356A      1.022623   357A      1.032075   358A      1.033808  
     359A      1.041481   360A      1.042976   361A      1.048548  
     362A      1.051374   363A      1.053914   364A      1.055680  
     365A      1.061437   366A      1.063520   367A      1.070354  
     368A      1.072989   369A      1.076199   370A      1.078547  
     371A      1.083612   372A      1.088474   373A      1.090581  
     374A      1.094750   375A      1.095167   376A      1.098988  
     377A      1.102111   378A      1.106111   379A      1.111168  
     380A      1.112162   381A      1.114594   382A      1.118226  
     383A      1.125376   384A      1.128267   385A      1.131063  
     386A      1.135913   387A      1.139001   388A      1.140829  
     389A      1.142387   390A      1.147898   391A      1.154442  
     392A      1.157339   393A      1.163691   394A      1.166215  
     395A      1.172135   396A      1.173403   397A      1.176830  
     398A      1.182157   399A      1.182750   400A      1.187383  
     401A      1.188704   402A      1.193941   403A      1.196610  
     404A      1.203055   405A      1.204876   406A      1.210713  
     407A      1.211787   408A      1.213792   409A      1.217571  
     410A      1.222923   411A      1.224851   412A      1.231318  
     413A      1.235154   414A      1.241399   415A      1.241635  
     416A      1.246058   417A      1.249344   418A      1.253374  
     419A      1.257953   420A      1.259503   421A      1.268827  
     422A      1.272219   423A      1.276747   424A      1.281073  
     425A      1.283098   426A      1.285886   427A      1.292851  
     428A      1.299340   429A      1.302224   430A      1.306713  
     431A      1.308699   432A      1.316139   433A      1.319441  
     434A      1.324699   435A      1.326585   436A      1.332083  
     437A      1.339006   438A      1.348079   439A      1.350131  
     440A      1.360435   441A      1.362615   442A      1.366454  
     443A      1.373812   444A      1.375192   445A      1.381226  
     446A      1.384570   447A      1.388971   448A      1.391893  
     449A      1.397537   450A      1.402093   451A      1.408471  
     452A      1.411010   453A      1.413265   454A      1.422925  
     455A      1.431175   456A      1.434540   457A      1.439228  
     458A      1.445355   459A      1.448709   460A      1.455322  
     461A      1.463763   462A      1.464830   463A      1.467801  
     464A      1.473651   465A      1.474924   466A      1.482314  
     467A      1.483643   468A      1.495009   469A      1.505116  
     470A      1.507347   471A      1.513363   472A      1.514618  
     473A      1.521600   474A      1.522441   475A      1.529719  
     476A      1.536112   477A      1.537379   478A      1.541821  
     479A      1.548363   480A      1.553336   481A      1.557078  
     482A      1.563045   483A      1.569807   484A      1.573839  
     485A      1.576136   486A      1.578853   487A      1.588398  
     488A      1.591770   489A      1.603091   490A      1.603956  
     491A      1.612511   492A      1.615987   493A      1.623472  
     494A      1.624325   495A      1.627917   496A      1.632043  
     497A      1.635158   498A      1.639058   499A      1.640876  
     500A      1.648213   501A      1.657883   502A      1.662034  
     503A      1.668237   504A      1.672271   505A      1.676800  
     506A      1.681207   507A      1.684938   508A      1.686092  
     509A      1.690361   510A      1.693335   511A      1.700223  
     512A      1.709422   513A      1.713689   514A      1.715102  
     515A      1.719957   516A      1.723677   517A      1.725856  
     518A      1.734575   519A      1.738106   520A      1.739502  
     521A      1.750985   522A      1.751917   523A      1.755344  
     524A      1.756763   525A      1.762508   526A      1.773061  
     527A      1.776745   528A      1.783949   529A      1.788465  
     530A      1.791748   531A      1.797056   532A      1.803715  
     533A      1.806867   534A      1.811384   535A      1.813356  
     536A      1.814982   537A      1.828722   538A      1.830098  
     539A      1.834424   540A      1.837485   541A      1.845294  
     542A      1.849831   543A      1.852122   544A      1.857883  
     545A      1.868394   546A      1.870397   547A      1.871387  
     548A      1.873577   549A      1.877593   550A      1.880443  
     551A      1.886033   552A      1.895568   553A      1.900737  
     554A      1.906020   555A      1.907710   556A      1.916766  
     557A      1.920142   558A      1.924247   559A      1.927428  
     560A      1.933055   561A      1.936301   562A      1.943809  
     563A      1.944925   564A      1.950651   565A      1.959142  
     566A      1.964532   567A      1.970938   568A      1.971380  
     569A      1.977421   570A      1.981878   571A      1.982565  
     572A      1.987902   573A      1.996581   574A      2.000321  
     575A      2.007466   576A      2.008244   577A      2.017532  
     578A      2.020366   579A      2.026609   580A      2.030472  
     581A      2.034393   582A      2.036836   583A      2.047275  
     584A      2.051332   585A      2.056258   586A      2.065979  
     587A      2.068819   588A      2.071266   589A      2.083243  
     590A      2.085904   591A      2.087620   592A      2.093317  
     593A      2.095999   594A      2.104009   595A      2.112430  
     596A      2.118398   597A      2.123516   598A      2.129385  
     599A      2.131449   600A      2.139244   601A      2.143744  
     602A      2.152435   603A      2.161551   604A      2.166974  
     605A      2.167930   606A      2.175489   607A      2.177172  
     608A      2.187813   609A      2.191218   610A      2.194517  
     611A      2.202610   612A      2.205409   613A      2.218468  
     614A      2.224985   615A      2.227966   616A      2.233596  
     617A      2.238850   618A      2.245320   619A      2.250135  
     620A      2.258296   621A      2.259148   622A      2.262755  
     623A      2.268920   624A      2.276136   625A      2.278518  
     626A      2.282300   627A      2.301283   628A      2.302047  
     629A      2.309824   630A      2.315485   631A      2.318073  
     632A      2.321505   633A      2.329659   634A      2.334274  
     635A      2.335432   636A      2.347238   637A      2.360962  
     638A      2.364678   639A      2.382549   640A      2.384106  
     641A      2.391003   642A      2.405159   643A      2.414016  
     644A      2.419437   645A      2.429638   646A      2.430850  
     647A      2.441857   648A      2.442347   649A      2.446119  
     650A      2.453116   651A      2.459694   652A      2.469724  
     653A      2.473976   654A      2.484397   655A      2.488725  
     656A      2.501009   657A      2.504195   658A      2.516195  
     659A      2.518808   660A      2.525797   661A      2.535142  
     662A      2.546376   663A      2.550027   664A      2.554993  
     665A      2.564902   666A      2.575477   667A      2.582949  
     668A      2.587256   669A      2.596903   670A      2.599087  
     671A      2.610472   672A      2.611833   673A      2.621302  
     674A      2.634090   675A      2.641382   676A      2.645774  
     677A      2.652973   678A      2.661080   679A      2.663677  
     680A      2.667551   681A      2.673836   682A      2.683529  
     683A      2.691766   684A      2.694341   685A      2.704987  
     686A      2.707578   687A      2.710794   688A      2.727154  
     689A      2.737009   690A      2.742127   691A      2.751490  
     692A      2.762928   693A      2.767839   694A      2.777799  
     695A      2.778500   696A      2.784765   697A      2.791451  
     698A      2.797314   699A      2.809496   700A      2.815580  
     701A      2.820944   702A      2.827582   703A      2.832933  
     704A      2.853115   705A      2.864430   706A      2.869341  
     707A      2.873528   708A      2.879693   709A      2.889016  
     710A      2.897946   711A      2.906493   712A      2.910648  
     713A      2.918339   714A      2.925599   715A      2.929388  
     716A      2.944953   717A      2.952773   718A      2.962231  
     719A      2.963022   720A      2.975315   721A      2.980105  
     722A      2.989747   723A      2.995354   724A      2.999216  
     725A      3.008769   726A      3.012110   727A      3.021802  
     728A      3.028980   729A      3.041666   730A      3.056691  
     731A      3.062711   732A      3.069396   733A      3.076905  
     734A      3.083251   735A      3.089740   736A      3.097078  
     737A      3.108485   738A      3.112157   739A      3.121870  
     740A      3.125181   741A      3.131746   742A      3.143201  
     743A      3.149552   744A      3.157535   745A      3.174229  
     746A      3.182769   747A      3.188353   748A      3.190941  
     749A      3.196658   750A      3.199756   751A      3.203950  
     752A      3.212428   753A      3.233145   754A      3.236258  
     755A      3.242728   756A      3.254565   757A      3.256068  
     758A      3.270596   759A      3.283209   760A      3.285162  
     761A      3.293555   762A      3.299361   763A      3.308304  
     764A      3.317404   765A      3.323286   766A      3.333417  
     767A      3.336021   768A      3.339889   769A      3.348666  
     770A      3.356666   771A      3.369840   772A      3.372603  
     773A      3.381487   774A      3.384650   775A      3.387592  
     776A      3.405309   777A      3.420993   778A      3.421758  
     779A      3.431062   780A      3.439535   781A      3.446205  
     782A      3.453166   783A      3.473515   784A      3.478769  
     785A      3.491945   786A      3.494967   787A      3.506001  
     788A      3.512431   789A      3.525497   790A      3.532775  
     791A      3.555062   792A      3.563696   793A      3.582107  
     794A      3.593956   795A      3.601676   796A      3.604625  
     797A      3.614022   798A      3.630961   799A      3.650951  
     800A      3.654648   801A      3.666112   802A      3.670860  
     803A      3.679066   804A      3.695430   805A      3.703758  
     806A      3.710439   807A      3.733236   808A      3.734327  
     809A      3.735687   810A      3.748972   811A      3.754670  
     812A      3.766557   813A      3.780010   814A      3.787516  
     815A      3.797523   816A      3.812482   817A      3.821285  
     818A      3.834216   819A      3.844657   820A      3.852241  
     821A      3.861891   822A      3.863531   823A      3.867995  
     824A      3.876183   825A      3.887886   826A      3.895221  
     827A      3.903803   828A      3.916505   829A      3.928352  
     830A      3.938913   831A      3.946441   832A      3.954693  
     833A      3.962108   834A      3.965899   835A      3.974203  
     836A      3.984723   837A      3.986383   838A      3.988490  
     839A      3.998815   840A      4.013039   841A      4.029508  
     842A      4.039601   843A      4.044488   844A      4.050903  
     845A      4.059945   846A      4.068983   847A      4.073104  
     848A      4.076608   849A      4.085461   850A      4.095888  
     851A      4.099360   852A      4.101937   853A      4.111017  
     854A      4.115217   855A      4.130797   856A      4.137441  
     857A      4.147726   858A      4.158733   859A      4.165239  
     860A      4.170021   861A      4.173703   862A      4.187734  
     863A      4.190371   864A      4.195481   865A      4.200986  
     866A      4.206288   867A      4.214633   868A      4.226286  
     869A      4.243247   870A      4.247644   871A      4.252457  
     872A      4.262786   873A      4.270115   874A      4.272939  
     875A      4.283572   876A      4.287418   877A      4.300204  
     878A      4.302709   879A      4.311515   880A      4.313446  
     881A      4.324377   882A      4.337570   883A      4.342454  
     884A      4.350124   885A      4.361796   886A      4.364954  
     887A      4.375714   888A      4.379476   889A      4.385475  
     890A      4.394724   891A      4.397997   892A      4.418039  
     893A      4.429437   894A      4.433176   895A      4.436315  
     896A      4.442278   897A      4.452327   898A      4.461480  
     899A      4.470809   900A      4.481729   901A      4.489115  
     902A      4.497801   903A      4.502717   904A      4.510262  
     905A      4.531233   906A      4.534699   907A      4.548215  
     908A      4.554144   909A      4.560184   910A      4.567655  
     911A      4.578435   912A      4.581117   913A      4.588863  
     914A      4.598405   915A      4.607614   916A      4.616726  
     917A      4.623980   918A      4.632827   919A      4.634708  
     920A      4.638817   921A      4.647781   922A      4.664426  
     923A      4.667054   924A      4.681230   925A      4.693260  
     926A      4.698626   927A      4.703453   928A      4.719763  
     929A      4.721869   930A      4.730013   931A      4.738640  
     932A      4.750552   933A      4.758417   934A      4.765326  
     935A      4.782632   936A      4.793610   937A      4.800017  
     938A      4.816428   939A      4.821583   940A      4.832022  
     941A      4.838442   942A      4.841786   943A      4.847278  
     944A      4.858696   945A      4.869259   946A      4.875491  
     947A      4.885178   948A      4.893942   949A      4.901990  
     950A      4.910764   951A      4.914169   952A      4.919729  
     953A      4.935580   954A      4.946712   955A      4.959381  
     956A      4.973703   957A      4.980102   958A      4.988640  
     959A      5.002062   960A      5.004592   961A      5.014945  
     962A      5.024472   963A      5.033040   964A      5.040220  
     965A      5.049562   966A      5.066986   967A      5.069412  
     968A      5.078314   969A      5.087155   970A      5.098656  
     971A      5.106070   972A      5.118852   973A      5.124946  
     974A      5.129450   975A      5.134435   976A      5.140456  
     977A      5.152932   978A      5.159043   979A      5.166930  
     980A      5.175406   981A      5.188834   982A      5.194271  
     983A      5.207971   984A      5.215658   985A      5.222512  
     986A      5.229798   987A      5.238679   988A      5.257201  
     989A      5.259540   990A      5.271978   991A      5.278996  
     992A      5.293812   993A      5.296879   994A      5.313360  
     995A      5.322248   996A      5.328426   997A      5.343112  
     998A      5.344761   999A      5.356525  1000A      5.373181  
    1001A      5.375296  1002A      5.376669  1003A      5.383533  
    1004A      5.393475  1005A      5.403640  1006A      5.416178  
    1007A      5.419965  1008A      5.428645  1009A      5.437639  
    1010A      5.448079  1011A      5.463636  1012A      5.469208  
    1013A      5.472103  1014A      5.474420  1015A      5.479044  
    1016A      5.494508  1017A      5.511883  1018A      5.529202  
    1019A      5.535652  1020A      5.541633  1021A      5.552430  
    1022A      5.556114  1023A      5.563089  1024A      5.574098  
    1025A      5.589553  1026A      5.598532  1027A      5.604714  
    1028A      5.614339  1029A      5.621045  1030A      5.623409  
    1031A      5.643327  1032A      5.644658  1033A      5.654238  
    1034A      5.674557  1035A      5.677703  1036A      5.692858  
    1037A      5.714297  1038A      5.726213  1039A      5.739217  
    1040A      5.754239  1041A      5.767150  1042A      5.769480  
    1043A      5.775904  1044A      5.787071  1045A      5.805859  
    1046A      5.811537  1047A      5.815380  1048A      5.828622  
    1049A      5.843646  1050A      5.858111  1051A      5.880897  
    1052A      5.900912  1053A      5.919421  1054A      5.928268  
    1055A      5.952888  1056A      5.972373  1057A      5.990570  
    1058A      6.008176  1059A      6.023838  1060A      6.033267  
    1061A      6.048641  1062A      6.073575  1063A      6.086199  
    1064A      6.124933  1065A      6.130392  1066A      6.145322  
    1067A      6.169062  1068A      6.189899  1069A      6.207191  
    1070A      6.218383  1071A      6.273361  1072A      6.276679  
    1073A      6.289237  1074A      6.334686  1075A      6.366985  
    1076A      6.371840  1077A      6.393551  1078A      6.420479  
    1079A      6.450065  1080A      6.478344  1081A      6.493726  
    1082A      6.523008  1083A      6.536919  1084A      6.714049  
    1085A      6.729068  1086A      6.764773  1087A      6.775518  
    1088A      6.777500  1089A      6.789746  1090A      6.799421  
    1091A      6.802204  1092A      6.821858  1093A      6.831518  
    1094A      6.847188  1095A      6.859864  1096A      6.879133  
    1097A      6.887603  1098A      6.894099  1099A      6.901647  
    1100A      6.909822  1101A      6.915416  1102A      6.944006  
    1103A      6.953295  1104A      6.958501  1105A      6.965554  
    1106A      6.982593  1107A      6.992278  1108A      7.010189  
    1109A      7.017622  1110A      7.027474  1111A      7.041617  
    1112A      7.046253  1113A      7.057979  1114A      7.060754  
    1115A      7.073991  1116A      7.088143  1117A      7.097570  
    1118A      7.111330  1119A      7.126268  1120A      7.133406  
    1121A      7.144877  1122A      7.158653  1123A      7.171909  
    1124A      7.177792  1125A      7.184388  1126A      7.190007  
    1127A      7.198584  1128A      7.202171  1129A      7.212849  
    1130A      7.227555  1131A      7.243456  1132A      7.285186  
    1133A      7.298085  1134A      7.304717  1135A      7.314340  
    1136A      7.346977  1137A      7.353713  1138A      7.358321  
    1139A      7.369669  1140A      7.374229  1141A      7.384566  
    1142A      7.396929  1143A      7.411709  1144A      7.422051  
    1145A      7.433912  1146A      7.436759  1147A      7.462340  
    1148A      7.468184  1149A      7.474377  1150A      7.486623  
    1151A      7.496412  1152A      7.508054  1153A      7.523029  
    1154A      7.547436  1155A      7.560445  1156A      7.567964  
    1157A      7.585372  1158A      7.590791  1159A      7.602341  
    1160A      7.622207  1161A      7.627908  1162A      7.639835  
    1163A      7.657534  1164A      7.659446  1165A      7.679250  
    1166A      7.700204  1167A      7.716879  1168A      7.753472  
    1169A      7.758232  1170A      7.766784  1171A      7.785271  
    1172A      7.795686  1173A      7.831300  1174A      7.849206  
    1175A      7.862138  1176A      7.873842  1177A      7.883846  
    1178A      7.894178  1179A      7.918290  1180A      7.935010  
    1181A      7.942947  1182A      7.947872  1183A      7.954949  
    1184A      7.990128  1185A      7.997633  1186A      8.094042  
    1187A      8.127795  1188A      8.129594  1189A      8.166960  
    1190A      8.179663  1191A      8.191512  1192A      8.207699  
    1193A      8.250262  1194A      8.307434  1195A      8.355846  
    1196A      8.361251  1197A      8.368928  1198A      8.384164  
    1199A      8.418004  1200A      8.440247  1201A      8.698055  
    1202A      8.717023  1203A      8.750408  1204A      8.775374  
    1205A      8.781900  1206A     11.981987  1207A     13.704800  
    1208A     15.242313  1209A     15.839502  1210A     16.841795  
    1211A     16.906273  1212A     17.052721  1213A     17.183719  
    1214A     17.474124  1215A     17.763033  1216A     18.184018  
    1217A     18.894220  1218A     19.037378  1219A     19.192978  
    1220A     19.655008  1221A     19.785457  1222A     20.084377  
    1223A     20.758692  

    Final Occupation by Irrep:
              A 
    DOCC [    76 ]

  @DF-RHF Final Energy: -1327.83172591701850

   => Energetics <=

    Nuclear Repulsion Energy =           1769.8230946847745599
    One-Electron Energy =               -5351.8477448508147063
    Two-Electron Energy =                2254.1929242490218712
    Total Energy =                      -1327.8317259170185025

Computation Completed

*** tstop() called on node92.bme.utexas.edu at Fri Nov  6 22:17:19 2020
Module time:
	user time   =    2950.79 seconds =      49.18 minutes
	system time =      17.86 seconds =       0.30 minutes
	total time  =        391 seconds =       6.52 minutes
Total time:
	user time   =    2950.79 seconds =      49.18 minutes
	system time =      17.86 seconds =       0.30 minutes
	total time  =        391 seconds =       6.52 minutes
   => Loading Basis Set <=

    Name: (AUG-CC-PVTZ AUX)
    Role: RIFIT
    Keyword: DF_BASIS_MP2
    atoms 1     entry P          line   590 file /home/xy3866/psi4conda/share/psi4/basis/aug-cc-pvtz-ri.gbs 
    atoms 2-10  entry O          line   264 file /home/xy3866/psi4conda/share/psi4/basis/aug-cc-pvtz-ri.gbs 
    atoms 11-18 entry C          line   148 file /home/xy3866/psi4conda/share/psi4/basis/aug-cc-pvtz-ri.gbs 
    atoms 19-35 entry H          line    30 file /home/xy3866/psi4conda/share/psi4/basis/aug-cc-pvtz-ri.gbs 


*** tstart() called on node92.bme.utexas.edu
*** at Fri Nov  6 22:17:20 2020


  //>>>>>>>>>>>>>>>>>>>>>>>>>>>>>>>>>>>//
  //               DFMP2               //
  //<<<<<<<<<<<<<<<<<<<<<<<<<<<<<<<<<<<//

	 --------------------------------------------------------
	                          DF-MP2                         
	      2nd-Order Density-Fitted Moller-Plesset Theory     
	              RMP2 Wavefunction,   8 Threads             
	                                                         
	        Rob Parrish, Justin Turney, Andy Simmonett,      
	           Ed Hohenstein, and C. David Sherrill          
	 --------------------------------------------------------

   => Auxiliary Basis Set <=

  Basis Set: (AUG-CC-PVTZ AUX)
    Blend: AUG-CC-PVTZ-RI
    Number of shells: 751
    Number of basis function: 2731
    Number of Cartesian functions: 3438
    Spherical Harmonics?: true
    Max angular momentum: 4

	 --------------------------------------------------------
	                 NBF =  1223, NAUX =  2731
	 --------------------------------------------------------
	   CLASS    FOCC     OCC    AOCC    AVIR     VIR    FVIR
	   PAIRS       0      76      76    1147    1147       0
	 --------------------------------------------------------


         ------------------------------------------------------------
                                     CPHF                           
                                  Rob Parrish                       
         ------------------------------------------------------------

  ==> Geometry <==

    Molecular point group: c1
    Full point group: C1

    Geometry (in Angstrom), charge = 0, multiplicity = 1:

       Center              X                  Y                   Z               Mass       
    ------------   -----------------  -----------------  -----------------  -----------------
         P           -2.294654722127    -0.933087385188     0.345180434316    30.973761998420
         O           -0.986711722127    -0.194606385188     0.938791434316    15.994914619570
         O            1.337691277873    -1.668527385188     1.231353434316    15.994914619570
         O            0.074146277873     2.366559614812     0.462670434316    15.994914619570
         O            3.063956277873    -2.180116385188    -0.808087565684    15.994914619570
         O            2.842776277873     2.510068614812     0.372037434316    15.994914619570
         O            4.191129277873     0.442352614812    -0.972371565684    15.994914619570
         O           -2.831421722127     0.040306614812    -0.807028565684    15.994914619570
         O           -3.263679722127    -0.716326385188     1.622173434316    15.994914619570
         O           -2.123551722127    -2.336688385188    -0.099165565684    15.994914619570
         C            0.113603277873     0.036964614812     0.016821434316    12.000000000000
         C            1.058166577873    -1.404219085188    -0.087283765684    12.000000000000
         C            0.894030277873     1.209599614812     0.565353434316    12.000000000000
         C            2.255101277873    -1.007351385188    -0.817534565684    12.000000000000
         C            2.172516277873     1.403427614812    -0.227538565684    12.000000000000
         C            3.021283277873     0.155660614812    -0.209819565684    12.000000000000
         C           -3.128771722127     1.438553614812    -0.488383565684    12.000000000000
         C           -3.540875722127     2.092120614812    -1.783616565684    12.000000000000
         H           -0.287650722127     0.305756614812    -0.969735565684     1.007825032230
         H            0.365710277873    -2.022408385188    -0.571529565684     1.007825032230
         H            1.152561277873     1.004832614812     1.612658434316     1.007825032230
         H            2.056375277873    -0.781704385188    -1.872253565684     1.007825032230
         H            1.912428277873     1.643242614812    -1.273080565684     1.007825032230
         H            3.291296277873    -0.087576385188     0.828148434316     1.007825032230
         H            0.517216277873    -1.881076385188     1.712012434316     1.007825032230
         H            0.660981277873     3.116266614812     0.683686434316     1.007825032230
         H            2.968984277873    -2.540418385188     0.095156434316     1.007825032230
         H            3.716870277873     2.556141614812    -0.058366565684     1.007825032230
         H            4.635168277873    -0.416878385188    -1.096584565684     1.007825032230
         H           -3.812953722127    -1.515382385188     1.735230434316     1.007825032230
         H           -3.935104722127     1.452496614812     0.249888434316     1.007825032230
         H           -2.234320722127     1.899835614812    -0.058593565684     1.007825032230
         H           -3.805079722127     3.137837614812    -1.602168565684     1.007825032230
         H           -2.721754722127     2.060278614812    -2.504372565684     1.007825032230
         H           -4.405502722127     1.581278614812    -2.212221565684     1.007825032230

  Nuclear repulsion = 1769.823094684774560
  Reference energy  = -1327.831725917018503

  ==> Basis Set <==

  Basis Set: AUG-CC-PVTZ
    Blend: AUG-CC-PVTZ
    Number of shells: 407
    Number of basis function: 1223
    Number of Cartesian functions: 1419
    Spherical Harmonics?: true
    Max angular momentum: 3

  ==> CGRSolver (by Rob Parrish) <==

   Number of roots    =         1
   Preconditioning    =    JACOBI
   Convergence cutoff =     1E-06
   Maximum iterations =       100

  ==> CPHFRHamiltonian (by Rob Parrish) <== 

  ==> DiskDFJK: Density-Fitted J/K Matrices <==

    J tasked:                  Yes
    K tasked:                  Yes
    wK tasked:                  No
    OpenMP threads:              8
    Integrals threads:           8
    Memory [MiB]:            22888
    Algorithm:                Core
    Integral Cache:           NONE
    Schwarz Cutoff:          1E-12
    Fitting Condition:       1E-10

   => Auxiliary Basis Set <=

  Basis Set: (AUG-CC-PVTZ AUX)
    Blend: AUG-CC-PVTZ-JKFIT
    Number of shells: 790
    Number of basis function: 2696
    Number of Cartesian functions: 3342
    Spherical Harmonics?: true
    Max angular momentum: 4

  ==> CPHF Iterations <==

  => Iterations <=

             Iter  Converged  Remaining    Residual
  CGR           1          0          1   8.122E-02
  CGR           2          0          1   1.863E-02
  CGR           3          0          1   7.210E-03
  CGR           4          0          1   2.068E-03
  CGR           5          0          1   7.084E-04
  CGR           6          0          1   2.080E-04
  CGR           7          0          1   7.234E-05
  CGR           8          0          1   2.431E-05
  CGR           9          0          1   8.079E-06
  CGR          10          0          1   2.756E-06
  CGR          11          1          0   7.452E-07

    CGRSolver converged.

	-----------------------------------------------------------
	 ==================> DF-MP2 Energies <==================== 
	-----------------------------------------------------------
	 Reference Energy          =   -1327.8317259170185025 [Eh]
	 Singles Energy            =      -0.0000000000000000 [Eh]
	 Same-Spin Energy          =      -1.0151997175999172 [Eh]
	 Opposite-Spin Energy      =      -3.0770836375296997 [Eh]
	 Correlation Energy        =      -4.0922833551296165 [Eh]
	 Total Energy              =   -1331.9240092721481687 [Eh]
	-----------------------------------------------------------
	 ================> DF-SCS-MP2 Energies <================== 
	-----------------------------------------------------------
	 SCS Same-Spin Scale       =       0.3333333333333333 [-]
	 SCS Opposite-Spin Scale   =       1.2000000000000000 [-]
	 SCS Same-Spin Energy      =      -0.3383999058666390 [Eh]
	 SCS Opposite-Spin Energy  =      -3.6925003650356394 [Eh]
	 SCS Correlation Energy    =      -4.0309002709022783 [Eh]
	 SCS Total Energy          =   -1331.8626261879207959 [Eh]
	-----------------------------------------------------------



Properties will be evaluated at  -0.000000,  -0.000000,  -0.000000 [a0]

Properties computed using the MP2 density matrix

  Nuclear Dipole Moment: [e a0]
     X:     2.1928      Y:     9.7679      Z:    -5.2788

  Electronic Dipole Moment: [e a0]
     X:    -2.5608      Y:    -9.1359      Z:     5.5964

  Dipole Moment: [e a0]
     X:    -0.3680      Y:     0.6319      Z:     0.3176     Total:     0.7973

  Dipole Moment: [D]
     X:    -0.9354      Y:     1.6062      Z:     0.8072     Total:     2.0264


*** tstop() called on node92.bme.utexas.edu at Fri Nov  6 22:51:26 2020
Module time:
	user time   =   13172.98 seconds =     219.55 minutes
	system time =     154.28 seconds =       2.57 minutes
	total time  =       2046 seconds =      34.10 minutes
Total time:
	user time   =   16124.59 seconds =     268.74 minutes
	system time =     172.15 seconds =       2.87 minutes
	total time  =       2438 seconds =      40.63 minutes

    Psi4 stopped on: Friday, 06 November 2020 10:51PM
    Psi4 wall time for execution: 0:40:38.14

*** Psi4 exiting successfully. Buy a developer a beer!
