19829275                                                                
Freq      RMP2-FC                                                     6-31G(d)            
Number of atoms                            I               21
Info1-9                                    I   N=           9
          33          31        1002           0           0         100
           6           2           1
Charge                                     I                1
Multiplicity                               I                1
Number of electrons                        I               56
Number of alpha electrons                  I               28
Number of beta electrons                   I               28
Number of basis functions                  I              133
Number of independent functions            I              133
Number of point charges in /Mol/           I                0
Number of translation vectors              I                0
Atomic numbers                             I   N=          21
           7           6           6           6           6           6
           6           1           1           1           1           1
           1           1           1           1           1           1
           1           1           1
Nuclear charges                            R   N=          21
  7.00000000E+00  6.00000000E+00  6.00000000E+00  6.00000000E+00  6.00000000E+00
  6.00000000E+00  6.00000000E+00  1.00000000E+00  1.00000000E+00  1.00000000E+00
  1.00000000E+00  1.00000000E+00  1.00000000E+00  1.00000000E+00  1.00000000E+00
  1.00000000E+00  1.00000000E+00  1.00000000E+00  1.00000000E+00  1.00000000E+00
  1.00000000E+00
Current cartesian coordinates              R   N=          63
  5.23368273E-01 -3.84884559E-01 -6.12522841E-01 -5.16833617E-01  2.08869000E+00
  3.73122797E-01 -1.57197077E+00 -2.34629830E+00 -2.59583788E-01 -3.30470010E+00
  1.90490745E+00 -2.79432429E-01 -3.94945914E+00 -8.29885570E-01  4.19973454E-01
  3.02623724E+00 -1.17691189E+00  4.91730532E-01  5.10635064E+00  7.02744623E-01
 -1.02965181E-01  7.93328879E-01 -1.55292926E-01 -2.52362634E+00  5.00243139E-01
  3.65561301E+00 -4.98134489E-01 -1.98336563E-01  2.10172333E+00  2.41532253E+00
 -9.67510594E-01 -3.63601823E+00  1.23139808E+00 -1.73291263E+00 -3.40236151E+00
 -2.02405656E+00 -3.59811340E+00  2.25857375E+00 -2.29784222E+00 -4.42540883E+00
  3.28645099E+00  7.67143990E-01 -4.32604370E+00 -9.76310015E-01  2.44549512E+00
 -5.60913543E+00 -1.54041172E+00 -5.78485307E-01  2.71443759E+00 -1.38252913E+00
  2.52298324E+00  3.44258611E+00 -3.03916812E+00 -2.99188192E-01  5.32479432E+00
  9.75973235E-01 -2.14064407E+00  4.78805516E+00  2.53168673E+00  7.95536956E-01
  6.89269250E+00 -4.32154070E-02  6.14684835E-01
Force Field                                I                0
Int Atom Types                             I   N=          21
           0           0           0           0           0           0
           0           0           0           0           0           0
           0           0           0           0           0           0
           0           0           0
MM charges                                 R   N=          21
  0.00000000E+00  0.00000000E+00  0.00000000E+00  0.00000000E+00  0.00000000E+00
  0.00000000E+00  0.00000000E+00  0.00000000E+00  0.00000000E+00  0.00000000E+00
  0.00000000E+00  0.00000000E+00  0.00000000E+00  0.00000000E+00  0.00000000E+00
  0.00000000E+00  0.00000000E+00  0.00000000E+00  0.00000000E+00  0.00000000E+00
  0.00000000E+00
Integer atomic weights                     I   N=          21
          14          12          12          12          12          12
          12           1           1           1           1           1
           1           1           1           1           1           1
           1           1           1
Real atomic weights                        R   N=          21
  1.40030740E+01  1.20000000E+01  1.20000000E+01  1.20000000E+01  1.20000000E+01
  1.20000000E+01  1.20000000E+01  1.00782504E+00  1.00782504E+00  1.00782504E+00
  1.00782504E+00  1.00782504E+00  1.00782504E+00  1.00782504E+00  1.00782504E+00
  1.00782504E+00  1.00782504E+00  1.00782504E+00  1.00782504E+00  1.00782504E+00
  1.00782504E+00
Atom fragment info                         I   N=          21
           0           0           0           0           0           0
           0           0           0           0           0           0
           0           0           0           0           0           0
           0           0           0
Atom residue num                           I   N=          21
           0           0           0           0           0           0
           0           0           0           0           0           0
           0           0           0           0           0           0
           0           0           0
Nuclear spins                              I   N=          21
           2           0           0           0           0           0
           0           1           1           1           1           1
           1           1           1           1           1           1
           1           1           1
Nuclear ZEff                               R   N=          21
 -4.55000000E+00 -3.60000000E+00 -3.60000000E+00 -3.60000000E+00 -3.60000000E+00
 -3.60000000E+00 -3.60000000E+00 -1.00000000E+00 -1.00000000E+00 -1.00000000E+00
 -1.00000000E+00 -1.00000000E+00 -1.00000000E+00 -1.00000000E+00 -1.00000000E+00
 -1.00000000E+00 -1.00000000E+00 -1.00000000E+00 -1.00000000E+00 -1.00000000E+00
 -1.00000000E+00
Nuclear QMom                               R   N=          21
  2.04400000E+00  0.00000000E+00  0.00000000E+00  0.00000000E+00  0.00000000E+00
  0.00000000E+00  0.00000000E+00  0.00000000E+00  0.00000000E+00  0.00000000E+00
  0.00000000E+00  0.00000000E+00  0.00000000E+00  0.00000000E+00  0.00000000E+00
  0.00000000E+00  0.00000000E+00  0.00000000E+00  0.00000000E+00  0.00000000E+00
  0.00000000E+00
Nuclear GFac                               R   N=          21
  4.03761000E-01  0.00000000E+00  0.00000000E+00  0.00000000E+00  0.00000000E+00
  0.00000000E+00  0.00000000E+00  2.79284600E+00  2.79284600E+00  2.79284600E+00
  2.79284600E+00  2.79284600E+00  2.79284600E+00  2.79284600E+00  2.79284600E+00
  2.79284600E+00  2.79284600E+00  2.79284600E+00  2.79284600E+00  2.79284600E+00
  2.79284600E+00
MicOpt                                     I   N=          21
          -1          -1          -1          -1          -1          -1
          -1          -1          -1          -1          -1          -1
          -1          -1          -1          -1          -1          -1
          -1          -1          -1
Number of contracted shells                I               56
Number of primitive shells                 I              133
Pure/Cartesian d shells                    I                1
Pure/Cartesian f shells                    I                0
Highest angular momentum                   I                2
Largest degree of contraction              I                6
Shell types                                I   N=          56
           0          -1          -1           2           0          -1
          -1           2           0          -1          -1           2
           0          -1          -1           2           0          -1
          -1           2           0          -1          -1           2
           0          -1          -1           2           0           0
           0           0           0           0           0           0
           0           0           0           0           0           0
           0           0           0           0           0           0
           0           0           0           0           0           0
           0           0
Number of primitives per shell             I   N=          56
           6           3           1           1           6           3
           1           1           6           3           1           1
           6           3           1           1           6           3
           1           1           6           3           1           1
           6           3           1           1           3           1
           3           1           3           1           3           1
           3           1           3           1           3           1
           3           1           3           1           3           1
           3           1           3           1           3           1
           3           1
Shell to atom map                          I   N=          56
           1           1           1           1           2           2
           2           2           3           3           3           3
           4           4           4           4           5           5
           5           5           6           6           6           6
           7           7           7           7           8           8
           9           9          10          10          11          11
          12          12          13          13          14          14
          15          15          16          16          17          17
          18          18          19          19          20          20
          21          21
Primitive exponents                        R   N=         133
  4.17351146E+03  6.27457911E+02  1.42902093E+02  4.02343293E+01  1.28202129E+01
  4.39043701E+00  1.16263619E+01  2.71627981E+00  7.72218397E-01  2.12031498E-01
  8.00000000E-01  3.04752488E+03  4.57369518E+02  1.03948685E+02  2.92101553E+01
  9.28666296E+00  3.16392696E+00  7.86827235E+00  1.88128854E+00  5.44249258E-01
  1.68714478E-01  8.00000000E-01  3.04752488E+03  4.57369518E+02  1.03948685E+02
  2.92101553E+01  9.28666296E+00  3.16392696E+00  7.86827235E+00  1.88128854E+00
  5.44249258E-01  1.68714478E-01  8.00000000E-01  3.04752488E+03  4.57369518E+02
  1.03948685E+02  2.92101553E+01  9.28666296E+00  3.16392696E+00  7.86827235E+00
  1.88128854E+00  5.44249258E-01  1.68714478E-01  8.00000000E-01  3.04752488E+03
  4.57369518E+02  1.03948685E+02  2.92101553E+01  9.28666296E+00  3.16392696E+00
  7.86827235E+00  1.88128854E+00  5.44249258E-01  1.68714478E-01  8.00000000E-01
  3.04752488E+03  4.57369518E+02  1.03948685E+02  2.92101553E+01  9.28666296E+00
  3.16392696E+00  7.86827235E+00  1.88128854E+00  5.44249258E-01  1.68714478E-01
  8.00000000E-01  3.04752488E+03  4.57369518E+02  1.03948685E+02  2.92101553E+01
  9.28666296E+00  3.16392696E+00  7.86827235E+00  1.88128854E+00  5.44249258E-01
  1.68714478E-01  8.00000000E-01  1.87311370E+01  2.82539436E+00  6.40121692E-01
  1.61277759E-01  1.87311370E+01  2.82539436E+00  6.40121692E-01  1.61277759E-01
  1.87311370E+01  2.82539436E+00  6.40121692E-01  1.61277759E-01  1.87311370E+01
  2.82539436E+00  6.40121692E-01  1.61277759E-01  1.87311370E+01  2.82539436E+00
  6.40121692E-01  1.61277759E-01  1.87311370E+01  2.82539436E+00  6.40121692E-01
  1.61277759E-01  1.87311370E+01  2.82539436E+00  6.40121692E-01  1.61277759E-01
  1.87311370E+01  2.82539436E+00  6.40121692E-01  1.61277759E-01  1.87311370E+01
  2.82539436E+00  6.40121692E-01  1.61277759E-01  1.87311370E+01  2.82539436E+00
  6.40121692E-01  1.61277759E-01  1.87311370E+01  2.82539436E+00  6.40121692E-01
  1.61277759E-01  1.87311370E+01  2.82539436E+00  6.40121692E-01  1.61277759E-01
  1.87311370E+01  2.82539436E+00  6.40121692E-01  1.61277759E-01  1.87311370E+01
  2.82539436E+00  6.40121692E-01  1.61277759E-01
Contraction coefficients                   R   N=         133
  1.83477216E-03  1.39946270E-02  6.85865518E-02  2.32240873E-01  4.69069948E-01
  3.60455199E-01 -1.14961182E-01 -1.69117479E-01  1.14585195E+00  1.00000000E+00
  1.00000000E+00  1.83473713E-03  1.40373228E-02  6.88426223E-02  2.32184443E-01
  4.67941348E-01  3.62311985E-01 -1.19332420E-01 -1.60854152E-01  1.14345644E+00
  1.00000000E+00  1.00000000E+00  1.83473713E-03  1.40373228E-02  6.88426223E-02
  2.32184443E-01  4.67941348E-01  3.62311985E-01 -1.19332420E-01 -1.60854152E-01
  1.14345644E+00  1.00000000E+00  1.00000000E+00  1.83473713E-03  1.40373228E-02
  6.88426223E-02  2.32184443E-01  4.67941348E-01  3.62311985E-01 -1.19332420E-01
 -1.60854152E-01  1.14345644E+00  1.00000000E+00  1.00000000E+00  1.83473713E-03
  1.40373228E-02  6.88426223E-02  2.32184443E-01  4.67941348E-01  3.62311985E-01
 -1.19332420E-01 -1.60854152E-01  1.14345644E+00  1.00000000E+00  1.00000000E+00
  1.83473713E-03  1.40373228E-02  6.88426223E-02  2.32184443E-01  4.67941348E-01
  3.62311985E-01 -1.19332420E-01 -1.60854152E-01  1.14345644E+00  1.00000000E+00
  1.00000000E+00  1.83473713E-03  1.40373228E-02  6.88426223E-02  2.32184443E-01
  4.67941348E-01  3.62311985E-01 -1.19332420E-01 -1.60854152E-01  1.14345644E+00
  1.00000000E+00  1.00000000E+00  3.34946043E-02  2.34726953E-01  8.13757326E-01
  1.00000000E+00  3.34946043E-02  2.34726953E-01  8.13757326E-01  1.00000000E+00
  3.34946043E-02  2.34726953E-01  8.13757326E-01  1.00000000E+00  3.34946043E-02
  2.34726953E-01  8.13757326E-01  1.00000000E+00  3.34946043E-02  2.34726953E-01
  8.13757326E-01  1.00000000E+00  3.34946043E-02  2.34726953E-01  8.13757326E-01
  1.00000000E+00  3.34946043E-02  2.34726953E-01  8.13757326E-01  1.00000000E+00
  3.34946043E-02  2.34726953E-01  8.13757326E-01  1.00000000E+00  3.34946043E-02
  2.34726953E-01  8.13757326E-01  1.00000000E+00  3.34946043E-02  2.34726953E-01
  8.13757326E-01  1.00000000E+00  3.34946043E-02  2.34726953E-01  8.13757326E-01
  1.00000000E+00  3.34946043E-02  2.34726953E-01  8.13757326E-01  1.00000000E+00
  3.34946043E-02  2.34726953E-01  8.13757326E-01  1.00000000E+00  3.34946043E-02
  2.34726953E-01  8.13757326E-01  1.00000000E+00
P(S=P) Contraction coefficients            R   N=         133
  0.00000000E+00  0.00000000E+00  0.00000000E+00  0.00000000E+00  0.00000000E+00
  0.00000000E+00  6.75797439E-02  3.23907296E-01  7.40895140E-01  1.00000000E+00
  0.00000000E+00  0.00000000E+00  0.00000000E+00  0.00000000E+00  0.00000000E+00
  0.00000000E+00  0.00000000E+00  6.89990666E-02  3.16423961E-01  7.44308291E-01
  1.00000000E+00  0.00000000E+00  0.00000000E+00  0.00000000E+00  0.00000000E+00
  0.00000000E+00  0.00000000E+00  0.00000000E+00  6.89990666E-02  3.16423961E-01
  7.44308291E-01  1.00000000E+00  0.00000000E+00  0.00000000E+00  0.00000000E+00
  0.00000000E+00  0.00000000E+00  0.00000000E+00  0.00000000E+00  6.89990666E-02
  3.16423961E-01  7.44308291E-01  1.00000000E+00  0.00000000E+00  0.00000000E+00
  0.00000000E+00  0.00000000E+00  0.00000000E+00  0.00000000E+00  0.00000000E+00
  6.89990666E-02  3.16423961E-01  7.44308291E-01  1.00000000E+00  0.00000000E+00
  0.00000000E+00  0.00000000E+00  0.00000000E+00  0.00000000E+00  0.00000000E+00
  0.00000000E+00  6.89990666E-02  3.16423961E-01  7.44308291E-01  1.00000000E+00
  0.00000000E+00  0.00000000E+00  0.00000000E+00  0.00000000E+00  0.00000000E+00
  0.00000000E+00  0.00000000E+00  6.89990666E-02  3.16423961E-01  7.44308291E-01
  1.00000000E+00  0.00000000E+00  0.00000000E+00  0.00000000E+00  0.00000000E+00
  0.00000000E+00  0.00000000E+00  0.00000000E+00  0.00000000E+00  0.00000000E+00
  0.00000000E+00  0.00000000E+00  0.00000000E+00  0.00000000E+00  0.00000000E+00
  0.00000000E+00  0.00000000E+00  0.00000000E+00  0.00000000E+00  0.00000000E+00
  0.00000000E+00  0.00000000E+00  0.00000000E+00  0.00000000E+00  0.00000000E+00
  0.00000000E+00  0.00000000E+00  0.00000000E+00  0.00000000E+00  0.00000000E+00
  0.00000000E+00  0.00000000E+00  0.00000000E+00  0.00000000E+00  0.00000000E+00
  0.00000000E+00  0.00000000E+00  0.00000000E+00  0.00000000E+00  0.00000000E+00
  0.00000000E+00  0.00000000E+00  0.00000000E+00  0.00000000E+00  0.00000000E+00
  0.00000000E+00  0.00000000E+00  0.00000000E+00  0.00000000E+00  0.00000000E+00
  0.00000000E+00  0.00000000E+00  0.00000000E+00  0.00000000E+00  0.00000000E+00
  0.00000000E+00  0.00000000E+00  0.00000000E+00
Coordinates of each shell                  R   N=         168
  5.23368273E-01 -3.84884559E-01 -6.12522841E-01  5.23368273E-01 -3.84884559E-01
 -6.12522841E-01  5.23368273E-01 -3.84884559E-01 -6.12522841E-01  5.23368273E-01
 -3.84884559E-01 -6.12522841E-01 -5.16833617E-01  2.08869000E+00  3.73122797E-01
 -5.16833617E-01  2.08869000E+00  3.73122797E-01 -5.16833617E-01  2.08869000E+00
  3.73122797E-01 -5.16833617E-01  2.08869000E+00  3.73122797E-01 -1.57197077E+00
 -2.34629830E+00 -2.59583788E-01 -1.57197077E+00 -2.34629830E+00 -2.59583788E-01
 -1.57197077E+00 -2.34629830E+00 -2.59583788E-01 -1.57197077E+00 -2.34629830E+00
 -2.59583788E-01 -3.30470010E+00  1.90490745E+00 -2.79432429E-01 -3.30470010E+00
  1.90490745E+00 -2.79432429E-01 -3.30470010E+00  1.90490745E+00 -2.79432429E-01
 -3.30470010E+00  1.90490745E+00 -2.79432429E-01 -3.94945914E+00 -8.29885570E-01
  4.19973454E-01 -3.94945914E+00 -8.29885570E-01  4.19973454E-01 -3.94945914E+00
 -8.29885570E-01  4.19973454E-01 -3.94945914E+00 -8.29885570E-01  4.19973454E-01
  3.02623724E+00 -1.17691189E+00  4.91730532E-01  3.02623724E+00 -1.17691189E+00
  4.91730532E-01  3.02623724E+00 -1.17691189E+00  4.91730532E-01  3.02623724E+00
 -1.17691189E+00  4.91730532E-01  5.10635064E+00  7.02744623E-01 -1.02965181E-01
  5.10635064E+00  7.02744623E-01 -1.02965181E-01  5.10635064E+00  7.02744623E-01
 -1.02965181E-01  5.10635064E+00  7.02744623E-01 -1.02965181E-01  7.93328879E-01
 -1.55292926E-01 -2.52362634E+00  7.93328879E-01 -1.55292926E-01 -2.52362634E+00
  5.00243139E-01  3.65561301E+00 -4.98134489E-01  5.00243139E-01  3.65561301E+00
 -4.98134489E-01 -1.98336563E-01  2.10172333E+00  2.41532253E+00 -1.98336563E-01
  2.10172333E+00  2.41532253E+00 -9.67510594E-01 -3.63601823E+00  1.23139808E+00
 -9.67510594E-01 -3.63601823E+00  1.23139808E+00 -1.73291263E+00 -3.40236151E+00
 -2.02405656E+00 -1.73291263E+00 -3.40236151E+00 -2.02405656E+00 -3.59811340E+00
  2.25857375E+00 -2.29784222E+00 -3.59811340E+00  2.25857375E+00 -2.29784222E+00
 -4.42540883E+00  3.28645099E+00  7.67143990E-01 -4.42540883E+00  3.28645099E+00
  7.67143990E-01 -4.32604370E+00 -9.76310015E-01  2.44549512E+00 -4.32604370E+00
 -9.76310015E-01  2.44549512E+00 -5.60913543E+00 -1.54041172E+00 -5.78485307E-01
 -5.60913543E+00 -1.54041172E+00 -5.78485307E-01  2.71443759E+00 -1.38252913E+00
  2.52298324E+00  2.71443759E+00 -1.38252913E+00  2.52298324E+00  3.44258611E+00
 -3.03916812E+00 -2.99188192E-01  3.44258611E+00 -3.03916812E+00 -2.99188192E-01
  5.32479432E+00  9.75973235E-01 -2.14064407E+00  5.32479432E+00  9.75973235E-01
 -2.14064407E+00  4.78805516E+00  2.53168673E+00  7.95536956E-01  4.78805516E+00
  2.53168673E+00  7.95536956E-01  6.89269250E+00 -4.32154070E-02  6.14684835E-01
  6.89269250E+00 -4.32154070E-02  6.14684835E-01
Constraint Structure                       R   N=          63
  5.23368273E-01 -3.84884559E-01 -6.12522841E-01 -5.16833617E-01  2.08869000E+00
  3.73122797E-01 -1.57197077E+00 -2.34629830E+00 -2.59583788E-01 -3.30470010E+00
  1.90490745E+00 -2.79432429E-01 -3.94945914E+00 -8.29885570E-01  4.19973454E-01
  3.02623724E+00 -1.17691189E+00  4.91730532E-01  5.10635064E+00  7.02744623E-01
 -1.02965181E-01  7.93328879E-01 -1.55292926E-01 -2.52362634E+00  5.00243139E-01
  3.65561301E+00 -4.98134489E-01 -1.98336563E-01  2.10172333E+00  2.41532253E+00
 -9.67510594E-01 -3.63601823E+00  1.23139808E+00 -1.73291263E+00 -3.40236151E+00
 -2.02405656E+00 -3.59811340E+00  2.25857375E+00 -2.29784222E+00 -4.42540883E+00
  3.28645099E+00  7.67143990E-01 -4.32604370E+00 -9.76310015E-01  2.44549512E+00
 -5.60913543E+00 -1.54041172E+00 -5.78485307E-01  2.71443759E+00 -1.38252913E+00
  2.52298324E+00  3.44258611E+00 -3.03916812E+00 -2.99188192E-01  5.32479432E+00
  9.75973235E-01 -2.14064407E+00  4.78805516E+00  2.53168673E+00  7.95536956E-01
  6.89269250E+00 -4.32154070E-02  6.14684835E-01
Num ILSW                                   I              100
ILSW                                       I   N=         100
           0           1           0           0           2           0
           0           0           0           0           0          -1
           0           0           0           0           0           0
           0           0           0           0           1           0
           1           0           0           0           0           0
           0           0      100000           0          -1           0
           0           0           0           0           0           0
           0           0           0           1           1           0
           0           0           1           0           0           0
           0           0           4          40           0           0
           0           0           0           0           0           0
           0           0           0           0           0           0
           0           0           0           0           0           0
           0           0           0           0           0           0
           0           0           0           0           0           0
           0           0           0           0           0           0
           0           0           0           0
Num RLSW                                   I               40
RLSW                                       R   N=          40
  1.00000000E+00  1.00000000E+00  1.00000000E+00  1.00000000E+00  1.00000000E+00
  0.00000000E+00  0.00000000E+00  1.00000000E+00  0.00000000E+00  0.00000000E+00
  0.00000000E+00  0.00000000E+00  1.00000000E+00  0.00000000E+00  0.00000000E+00
  0.00000000E+00  0.00000000E+00  1.00000000E+00  0.00000000E+00  0.00000000E+00
  0.00000000E+00  0.00000000E+00  1.00000000E+00  0.00000000E+00  0.00000000E+00
  0.00000000E+00  0.00000000E+00  1.00000000E+00  0.00000000E+00  0.00000000E+00
  0.00000000E+00  0.00000000E+00  0.00000000E+00  0.00000000E+00  0.00000000E+00
  0.00000000E+00  0.00000000E+00  0.00000000E+00  1.00000000E+00  1.00000000E+00
MxBond                                     I                4
NBond                                      I   N=          21
           4           4           4           4           4           4
           4           1           1           1           1           1
           1           1           1           1           1           1
           1           1           1
IBond                                      I   N=          84
           2           3           6           8           1           4
           9          10           1           5          11          12
           2           5          13          14           3           4
          15          16           1           7          17          18
           6          19          20          21           1           0
           0           0           2           0           0           0
           2           0           0           0           3           0
           0           0           3           0           0           0
           4           0           0           0           4           0
           0           0           5           0           0           0
           5           0           0           0           6           0
           0           0           6           0           0           0
           7           0           0           0           7           0
           0           0           7           0           0           0
RBond                                      R   N=          84
  1.00000000E+00  1.00000000E+00  1.00000000E+00  1.00000000E+00  1.00000000E+00
  1.00000000E+00  1.00000000E+00  1.00000000E+00  1.00000000E+00  1.00000000E+00
  1.00000000E+00  1.00000000E+00  1.00000000E+00  1.00000000E+00  1.00000000E+00
  1.00000000E+00  1.00000000E+00  1.00000000E+00  1.00000000E+00  1.00000000E+00
  1.00000000E+00  1.00000000E+00  1.00000000E+00  1.00000000E+00  1.00000000E+00
  1.00000000E+00  1.00000000E+00  1.00000000E+00  1.00000000E+00  0.00000000E+00
  0.00000000E+00  0.00000000E+00  1.00000000E+00  0.00000000E+00  0.00000000E+00
  0.00000000E+00  1.00000000E+00  0.00000000E+00  0.00000000E+00  0.00000000E+00
  1.00000000E+00  0.00000000E+00  0.00000000E+00  0.00000000E+00  1.00000000E+00
  0.00000000E+00  0.00000000E+00  0.00000000E+00  1.00000000E+00  0.00000000E+00
  0.00000000E+00  0.00000000E+00  1.00000000E+00  0.00000000E+00  0.00000000E+00
  0.00000000E+00  1.00000000E+00  0.00000000E+00  0.00000000E+00  0.00000000E+00
  1.00000000E+00  0.00000000E+00  0.00000000E+00  0.00000000E+00  1.00000000E+00
  0.00000000E+00  0.00000000E+00  0.00000000E+00  1.00000000E+00  0.00000000E+00
  0.00000000E+00  0.00000000E+00  1.00000000E+00  0.00000000E+00  0.00000000E+00
  0.00000000E+00  1.00000000E+00  0.00000000E+00  0.00000000E+00  0.00000000E+00
  1.00000000E+00  0.00000000E+00  0.00000000E+00  0.00000000E+00
Virial Ratio                               R      2.001525470675916E+00
SCF Energy                                 R     -2.896032919673522E+02
MP2 Energy                                 R     -2.905466016027609E+02
Total Energy                               R     -2.905466016027609E+02
Post-SCF wavefunction norm                 R      1.616826236021090E+00
RMS Force                                  R      5.253408020278823E-08
RMS Density                                R      7.358641856111373E-10
External E-field                           R   N=          35
  0.00000000E+00  0.00000000E+00  0.00000000E+00  0.00000000E+00  0.00000000E+00
  0.00000000E+00  0.00000000E+00  0.00000000E+00  0.00000000E+00  0.00000000E+00
  0.00000000E+00  0.00000000E+00  0.00000000E+00  0.00000000E+00  0.00000000E+00
  0.00000000E+00  0.00000000E+00  0.00000000E+00  0.00000000E+00  0.00000000E+00
  0.00000000E+00  0.00000000E+00  0.00000000E+00  0.00000000E+00  0.00000000E+00
  0.00000000E+00  0.00000000E+00  0.00000000E+00  0.00000000E+00  0.00000000E+00
  0.00000000E+00  0.00000000E+00  0.00000000E+00  0.00000000E+00  0.00000000E+00
IOpCl                                      I                0
IROHF                                      I                0
Alpha Orbital Energies                     R   N=         133
 -1.58596097E+01 -1.14554637E+01 -1.14543212E+01 -1.14536848E+01 -1.13956345E+01
 -1.13937182E+01 -1.13839448E+01 -1.49675041E+00 -1.26275005E+00 -1.18665923E+00
 -1.17893633E+00 -1.04293787E+00 -1.02852258E+00 -9.83725015E-01 -9.06433760E-01
 -8.57097745E-01 -8.27975274E-01 -7.87819839E-01 -7.77252370E-01 -7.64867055E-01
 -7.32043057E-01 -6.96437593E-01 -6.92107707E-01 -6.82365877E-01 -6.72898467E-01
 -6.65897067E-01 -6.58850866E-01 -6.44366699E-01  1.31828975E-02  6.12772440E-02
  8.35283214E-02  9.37436805E-02  1.10356817E-01  1.20232365E-01  1.23158708E-01
  1.41512699E-01  1.49141938E-01  1.52728132E-01  1.62690588E-01  1.74579485E-01
  1.81527514E-01  1.86261346E-01  1.95148601E-01  2.06078777E-01  2.36478520E-01
  2.60062653E-01  2.61752012E-01  2.87365753E-01  2.99117309E-01  5.18117660E-01
  5.28266698E-01  5.45465130E-01  5.57529397E-01  5.71923831E-01  5.97469287E-01
  6.07224243E-01  6.35639375E-01  6.75688453E-01  7.13614126E-01  7.49213501E-01
  7.56906819E-01  7.64392836E-01  7.80248468E-01  7.90723269E-01  8.53459143E-01
  8.83770596E-01  9.15754540E-01  9.27474812E-01  9.44756466E-01  9.50508268E-01
  9.62358597E-01  9.71724701E-01  9.83897520E-01  9.91314152E-01  9.91672584E-01
  1.01095888E+00  1.01970852E+00  1.02517224E+00  1.03881535E+00  1.06619482E+00
  1.07208946E+00  1.09097278E+00  1.10634556E+00  1.19618660E+00  1.26635227E+00
  1.32141388E+00  1.38899596E+00  1.39862886E+00  1.44819197E+00  1.59095433E+00
  1.65456928E+00  1.73493263E+00  1.75068167E+00  1.78977526E+00  1.83255104E+00
  1.91635385E+00  1.94368955E+00  1.97031126E+00  1.98509816E+00  2.03632452E+00
  2.08983403E+00  2.10002491E+00  2.10671960E+00  2.12445575E+00  2.14728548E+00
  2.17399683E+00  2.21485232E+00  2.22466185E+00  2.26206998E+00  2.29488651E+00
  2.35532835E+00  2.39044997E+00  2.44373209E+00  2.49326515E+00  2.50142509E+00
  2.54249142E+00  2.54777381E+00  2.62590838E+00  2.66448921E+00  2.73508271E+00
  2.75883945E+00  2.79380746E+00  2.81298974E+00  2.84752074E+00  2.95889897E+00
  3.02714734E+00  4.24932774E+00  4.44480373E+00  4.46715736E+00  4.49154290E+00
  4.65458826E+00  4.74918521E+00  4.82181982E+00
Alpha MO coefficients                      R   N=       17689
  9.95128357E-01  2.52411811E-02 -1.20090938E-05  2.53403783E-05 -1.53108336E-04
 -4.70425065E-03  2.82740634E-04  5.60961080E-05 -3.75461783E-04 -3.21335970E-03
 -3.21040858E-03 -3.09673109E-03 -1.29200844E-05 -5.84334657E-06 -1.47348343E-05
 -2.69024839E-05  3.16389349E-05  1.53358031E-04 -2.78586428E-04 -1.16473489E-04
  1.65637185E-03  7.39188824E-05 -6.53764956E-04 -9.31753009E-05 -7.65029575E-05
 -2.63218880E-05 -8.78812955E-05 -2.46152026E-05  1.10309637E-06  1.61050466E-05
 -3.62590294E-05 -2.71688284E-05  2.49591646E-04  2.34530554E-04 -3.59487623E-05
  2.09611825E-03  3.38076262E-04  6.00462462E-04  4.33521625E-05 -3.96465128E-05
 -3.41467841E-05 -9.65142042E-05  4.38552523E-05 -5.91529454E-06  5.44296484E-06
 -1.32478098E-05 -6.38322664E-05 -6.99561563E-05 -1.81624762E-06  3.02654413E-06
  1.24136274E-04 -9.16496553E-05 -1.20447754E-04 -4.01570394E-05 -3.78504658E-05
  1.01958604E-06 -3.98351739E-05 -9.52821804E-06 -7.79324036E-06  7.29263352E-06
  1.76128522E-05  9.71570676E-05 -4.75397826E-05  3.17463071E-05  2.33249323E-05
 -8.47030397E-04 -4.04937204E-04 -1.16442433E-04  1.72490427E-05 -1.82526265E-05
  2.07831575E-05  1.40338084E-08  5.93390964E-06  7.40409756E-06  5.77716853E-06
 -2.28897164E-05  4.58548321E-05 -2.86197644E-04  8.76959027E-05 -1.10365283E-04
  1.60844154E-03 -4.42027113E-04  2.15784399E-04 -1.86685695E-04 -1.68937537E-05
 -7.07072189E-05 -8.25642144E-05 -9.43845604E-06  2.22055824E-06 -8.13855502E-06
 -2.39240204E-06  1.91777115E-05  5.32381007E-05  1.78188358E-05  8.70116626E-06