
    -----------------------------------------------------------------------
          Psi4: An Open-Source Ab Initio Electronic Structure Package
                               Psi4 1.3.2 release

                         Git: Rev {HEAD} ecbda83 


    R. M. Parrish, L. A. Burns, D. G. A. Smith, A. C. Simmonett,
    A. E. DePrince III, E. G. Hohenstein, U. Bozkaya, A. Yu. Sokolov,
    R. Di Remigio, R. M. Richard, J. F. Gonthier, A. M. James,
    H. R. McAlexander, A. Kumar, M. Saitow, X. Wang, B. P. Pritchard,
    P. Verma, H. F. Schaefer III, K. Patkowski, R. A. King, E. F. Valeev,
    F. A. Evangelista, J. M. Turney, T. D. Crawford, and C. D. Sherrill,
    J. Chem. Theory Comput. 13(7) pp 3185--3197 (2017).
    (doi: 10.1021/acs.jctc.7b00174)


                         Additional Contributions by
    P. Kraus, H. Kruse, M. H. Lechner, M. C. Schieber, R. A. Shaw,
    A. Alenaizan, R. Galvelis, Z. L. Glick, S. Lehtola, and J. P. Misiewicz

    -----------------------------------------------------------------------


    Psi4 started on: Tuesday, 03 November 2020 05:52PM

    Process ID: 17836
    Host:       node142.bme.utexas.edu
    PSIDATADIR: /home/xy3866/psi4conda/share/psi4
    Memory:     500.0 MiB
    Threads:    8
    
  ==> Input File <==

--------------------------------------------------------------------------
#psi4
#
memory 32 gb

molecule  {
0 1
  N       -0.0337150    -0.9783820    -0.0001030
  H       -0.0465630    -1.9952990     0.0000230
  C       -1.2924060    -0.3478390    -0.0002800
  O       -2.3237930    -1.0132930     0.0001830
  C       -1.2062280     1.1067970     0.0000000
  H       -2.1261180     1.6763830     0.0001840
  C        0.0030670     1.7105540     0.0000260
  H        0.1229620     2.7891690     0.0001530
  N        1.1742530     0.9863660    -0.0000120
  H        1.9875468     1.4013570     0.0000655
  C        1.2261220    -0.4021520    -0.0000880
  O        2.2745420    -1.0338450     0.0001200
units angstrom
no_reorient  #important for SAPT in psi4, default
symmetry c1  #important for SAPT in psi4, default
}

set PROPERTIES_ORIGIN ["COM"]
properties('MP2/aug-cc-pvtz', properties = ['dipole'])
--------------------------------------------------------------------------

  Memory set to  29.802 GiB by Python driver.
    SCF Algorithm Type (re)set to DF.

*** tstart() called on node142.bme.utexas.edu
*** at Tue Nov  3 17:52:52 2020

   => Loading Basis Set <=

    Name: AUG-CC-PVTZ
    Role: ORBITAL
    Keyword: BASIS
    atoms 1, 9        entry N          line   281 file /home/xy3866/psi4conda/share/psi4/basis/aug-cc-pvtz.gbs 
    atoms 2, 6, 8, 10 entry H          line    36 file /home/xy3866/psi4conda/share/psi4/basis/aug-cc-pvtz.gbs 
    atoms 3, 5, 7, 11 entry C          line   235 file /home/xy3866/psi4conda/share/psi4/basis/aug-cc-pvtz.gbs 
    atoms 4, 12       entry O          line   327 file /home/xy3866/psi4conda/share/psi4/basis/aug-cc-pvtz.gbs 


         ---------------------------------------------------------
                                   SCF
               by Justin Turney, Rob Parrish, Andy Simmonett
                          and Daniel G. A. Smith
                              RHF Reference
                        8 Threads,  30517 MiB Core
         ---------------------------------------------------------

  ==> Geometry <==

    Molecular point group: c1
    Full point group: C1

    Geometry (in Angstrom), charge = 0, multiplicity = 1:

       Center              X                  Y                   Z               Mass       
    ------------   -----------------  -----------------  -----------------  -----------------
         N           -0.032708760956    -0.943374708915    -0.000099080733    14.003074004430
         H           -0.045556760956    -1.960291708915     0.000026919267     1.007825032230
         C           -1.291399760956    -0.312831708915    -0.000276080733    12.000000000000
         O           -2.322786760956    -0.978285708915     0.000186919267    15.994914619570
         C           -1.205221760956     1.141804291085     0.000003919267    12.000000000000
         H           -2.125111760956     1.711390291085     0.000187919267     1.007825032230
         C            0.004073239044     1.745561291085     0.000029919267    12.000000000000
         H            0.123968239044     2.824176291085     0.000156919267     1.007825032230
         N            1.175259239044     1.021373291085    -0.000008080733    14.003074004430
         H            1.988553039044     1.436364291085     0.000069419267     1.007825032230
         C            1.227128239044    -0.367144708915    -0.000084080733    12.000000000000
         O            2.275548239044    -0.998837708915     0.000123919267    15.994914619570

  Running in c1 symmetry.

  Rotational constants: A =      0.12940  B =      0.06675  C =      0.04403 [cm^-1]
  Rotational constants: A =   3879.22779  B =   2001.13606  C =   1320.13306 [MHz]
  Nuclear repulsion =  356.032107087073825

  Charge       = 0
  Multiplicity = 1
  Electrons    = 58
  Nalpha       = 29
  Nbeta        = 29

  ==> Algorithm <==

  SCF Algorithm Type is DF.
  DIIS enabled.
  MOM disabled.
  Fractional occupation disabled.
  Guess Type is SAD.
  Energy threshold   = 1.00e-10
  Density threshold  = 1.00e-10
  Integral threshold = 0.00e+00

  ==> Primary Basis <==

  Basis Set: AUG-CC-PVTZ
    Blend: AUG-CC-PVTZ
    Number of shells: 148
    Number of basis function: 460
    Number of Cartesian functions: 540
    Spherical Harmonics?: true
    Max angular momentum: 3

   => Loading Basis Set <=

    Name: (AUG-CC-PVTZ AUX)
    Role: JKFIT
    Keyword: DF_BASIS_SCF
    atoms 1, 9        entry N          line   224 file /home/xy3866/psi4conda/share/psi4/basis/aug-cc-pvtz-jkfit.gbs 
    atoms 2, 6, 8, 10 entry H          line    70 file /home/xy3866/psi4conda/share/psi4/basis/aug-cc-pvtz-jkfit.gbs 
    atoms 3, 5, 7, 11 entry C          line   162 file /home/xy3866/psi4conda/share/psi4/basis/aug-cc-pvtz-jkfit.gbs 
    atoms 4, 12       entry O          line   286 file /home/xy3866/psi4conda/share/psi4/basis/aug-cc-pvtz-jkfit.gbs 

  ==> Pre-Iterations <==

   -------------------------------------------------------
    Irrep   Nso     Nmo     Nalpha   Nbeta   Ndocc  Nsocc
   -------------------------------------------------------
     A        460     460       0       0       0       0
   -------------------------------------------------------
    Total     460     460      29      29      29       0
   -------------------------------------------------------

  ==> Integral Setup <==

  DFHelper Memory: AOs need 1.624 GiB; user supplied 22.352 GiB. Using in-core AOs.

  ==> MemDFJK: Density-Fitted J/K Matrices <==

    J tasked:                   Yes
    K tasked:                   Yes
    wK tasked:                   No
    OpenMP threads:               8
    Memory [MiB]:             22888
    Algorithm:                 Core
    Schwarz Cutoff:           1E-12
    Mask sparsity (%):       2.5529
    Fitting Condition:        1E-10

   => Auxiliary Basis Set <=

  Basis Set: (AUG-CC-PVTZ AUX)
    Blend: AUG-CC-PVTZ-JKFIT
    Number of shells: 296
    Number of basis function: 1016
    Number of Cartesian functions: 1268
    Spherical Harmonics?: true
    Max angular momentum: 4

  Minimum eigenvalue in the overlap matrix is 4.2374356503E-06.
  Using Symmetric Orthogonalization.

  SCF Guess: Superposition of Atomic Densities via on-the-fly atomic UHF.

  ==> Iterations <==

                           Total Energy        Delta E     RMS |[F,P]|

   @DF-RHF iter SAD:  -411.90895963058392   -4.11909e+02   0.00000e+00 
   @DF-RHF iter   1:  -412.37035824177406   -4.61399e-01   1.62319e-03 DIIS
   @DF-RHF iter   2:  -412.52949557283029   -1.59137e-01   1.08170e-03 DIIS
   @DF-RHF iter   3:  -412.60925313595317   -7.97576e-02   1.95819e-04 DIIS
   @DF-RHF iter   4:  -412.61348182559897   -4.22869e-03   7.90374e-05 DIIS
   @DF-RHF iter   5:  -412.61433749685131   -8.55671e-04   1.59679e-05 DIIS
   @DF-RHF iter   6:  -412.61443498814799   -9.74913e-05   8.17130e-06 DIIS
   @DF-RHF iter   7:  -412.61445371690303   -1.87288e-05   3.32029e-06 DIIS
   @DF-RHF iter   8:  -412.61445706502127   -3.34812e-06   1.16211e-06 DIIS
   @DF-RHF iter   9:  -412.61445733321028   -2.68189e-07   4.72412e-07 DIIS
   @DF-RHF iter  10:  -412.61445739638174   -6.31715e-08   1.58536e-07 DIIS
   @DF-RHF iter  11:  -412.61445740418600   -7.80426e-09   5.39575e-08 DIIS
   @DF-RHF iter  12:  -412.61445740486749   -6.81496e-10   1.70092e-08 DIIS
   @DF-RHF iter  13:  -412.61445740494207   -7.45786e-11   5.98114e-09 DIIS
   @DF-RHF iter  14:  -412.61445740495242   -1.03455e-11   3.14347e-09 DIIS
   @DF-RHF iter  15:  -412.61445740495731   -4.88853e-12   7.94650e-10 DIIS
   @DF-RHF iter  16:  -412.61445740495617    1.13687e-12   3.37245e-10 DIIS
   @DF-RHF iter  17:  -412.61445740495577    3.97904e-13   1.26865e-10 DIIS
   @DF-RHF iter  18:  -412.61445740495674   -9.66338e-13   4.67566e-11 DIIS
  Energy and wave function converged.


  ==> Post-Iterations <==

    Orbital Energies [Eh]
    ---------------------

    Doubly Occupied:                                                      

       1A    -20.550626     2A    -20.545074     3A    -15.638537  
       4A    -15.631259     5A    -11.423928     6A    -11.386144  
       7A    -11.345251     8A    -11.260818     9A     -1.434217  
      10A     -1.395101    11A     -1.318477    12A     -1.248820  
      13A     -1.092814    14A     -0.933545    15A     -0.911461  
      16A     -0.820467    17A     -0.765401    18A     -0.715680  
      19A     -0.682822    20A     -0.667968    21A     -0.654457  
      22A     -0.618272    23A     -0.601718    24A     -0.570099  
      25A     -0.526584    26A     -0.485136    27A     -0.451568  
      28A     -0.438041    29A     -0.372178  

    Virtual:                                                              

      30A      0.014646    31A      0.033827    32A      0.040680  
      33A      0.050835    34A      0.056720    35A      0.075291  
      36A      0.079865    37A      0.087133    38A      0.094027  
      39A      0.099390    40A      0.106371    41A      0.107046  
      42A      0.116344    43A      0.121868    44A      0.123984  
      45A      0.133934    46A      0.138339    47A      0.146189  
      48A      0.156713    49A      0.158229    50A      0.163184  
      51A      0.163237    52A      0.175503    53A      0.199786  
      54A      0.210294    55A      0.214784    56A      0.220138  
      57A      0.229076    58A      0.241911    59A      0.249406  
      60A      0.261281    61A      0.262425    62A      0.267038  
      63A      0.269218    64A      0.272062    65A      0.276894  
      66A      0.284214    67A      0.294275    68A      0.296475  
      69A      0.308836    70A      0.313782    71A      0.329350  
      72A      0.336618    73A      0.345686    74A      0.349968  
      75A      0.353887    76A      0.359209    77A      0.364453  
      78A      0.374189    79A      0.375318    80A      0.394086  
      81A      0.400227    82A      0.412860    83A      0.414916  
      84A      0.420633    85A      0.432690    86A      0.434489  
      87A      0.453045    88A      0.454705    89A      0.457177  
      90A      0.462044    91A      0.465884    92A      0.470881  
      93A      0.481899    94A      0.493968    95A      0.498399  
      96A      0.510413    97A      0.520606    98A      0.521580  
      99A      0.522503   100A      0.541473   101A      0.563339  
     102A      0.571787   103A      0.595094   104A      0.598540  
     105A      0.599287   106A      0.608430   107A      0.618684  
     108A      0.628854   109A      0.634680   110A      0.641750  
     111A      0.658200   112A      0.670778   113A      0.676870  
     114A      0.682461   115A      0.698949   116A      0.711726  
     117A      0.714619   118A      0.732839   119A      0.739036  
     120A      0.749286   121A      0.750733   122A      0.756171  
     123A      0.771938   124A      0.774593   125A      0.801712  
     126A      0.811029   127A      0.826544   128A      0.841826  
     129A      0.843646   130A      0.846987   131A      0.869721  
     132A      0.875654   133A      0.879377   134A      0.889257  
     135A      0.892534   136A      0.908306   137A      0.918097  
     138A      0.918417   139A      0.927250   140A      0.934039  
     141A      0.934229   142A      0.946565   143A      0.955644  
     144A      0.960308   145A      0.970695   146A      0.978656  
     147A      0.989714   148A      1.003422   149A      1.007639  
     150A      1.017549   151A      1.042904   152A      1.049043  
     153A      1.052330   154A      1.071134   155A      1.081266  
     156A      1.090324   157A      1.106221   158A      1.108301  
     159A      1.123065   160A      1.131810   161A      1.139680  
     162A      1.144039   163A      1.148481   164A      1.150963  
     165A      1.167862   166A      1.179458   167A      1.179821  
     168A      1.182427   169A      1.195123   170A      1.216116  
     171A      1.216551   172A      1.228342   173A      1.229610  
     174A      1.241233   175A      1.262236   176A      1.279367  
     177A      1.290121   178A      1.303645   179A      1.324844  
     180A      1.336161   181A      1.343909   182A      1.364431  
     183A      1.369717   184A      1.375275   185A      1.391110  
     186A      1.402492   187A      1.416459   188A      1.417683  
     189A      1.435143   190A      1.440137   191A      1.458895  
     192A      1.469260   193A      1.479533   194A      1.482123  
     195A      1.495130   196A      1.517699   197A      1.517942  
     198A      1.525763   199A      1.549207   200A      1.554164  
     201A      1.575570   202A      1.577092   203A      1.597055  
     204A      1.619118   205A      1.633015   206A      1.642907  
     207A      1.649684   208A      1.669551   209A      1.684209  
     210A      1.702860   211A      1.709421   212A      1.730310  
     213A      1.743836   214A      1.757471   215A      1.797384  
     216A      1.822287   217A      1.829850   218A      1.858670  
     219A      1.862119   220A      1.872376   221A      1.883407  
     222A      1.919162   223A      1.920621   224A      1.928676  
     225A      1.931372   226A      1.979676   227A      2.008493  
     228A      2.013887   229A      2.027998   230A      2.095637  
     231A      2.103340   232A      2.118220   233A      2.118620  
     234A      2.136197   235A      2.142041   236A      2.149298  
     237A      2.158023   238A      2.191187   239A      2.195665  
     240A      2.220207   241A      2.233422   242A      2.253415  
     243A      2.277720   244A      2.293966   245A      2.295270  
     246A      2.320466   247A      2.347368   248A      2.362170  
     249A      2.399251   250A      2.400576   251A      2.412554  
     252A      2.431689   253A      2.451703   254A      2.471623  
     255A      2.483660   256A      2.499524   257A      2.505264  
     258A      2.517855   259A      2.530173   260A      2.532051  
     261A      2.571819   262A      2.576053   263A      2.586590  
     264A      2.592983   265A      2.597813   266A      2.609343  
     267A      2.634907   268A      2.660758   269A      2.693289  
     270A      2.694968   271A      2.697592   272A      2.756111  
     273A      2.764885   274A      2.772461   275A      2.795469  
     276A      2.822543   277A      2.829104   278A      2.854258  
     279A      2.869144   280A      2.907932   281A      2.927198  
     282A      2.946123   283A      2.974208   284A      2.998746  
     285A      3.003512   286A      3.013555   287A      3.037378  
     288A      3.096974   289A      3.117186   290A      3.142956  
     291A      3.197494   292A      3.200503   293A      3.236362  
     294A      3.243505   295A      3.260497   296A      3.279588  
     297A      3.283661   298A      3.335153   299A      3.361801  
     300A      3.417183   301A      3.427400   302A      3.433142  
     303A      3.467943   304A      3.471515   305A      3.508543  
     306A      3.527697   307A      3.537238   308A      3.577217  
     309A      3.604726   310A      3.611305   311A      3.640507  
     312A      3.642368   313A      3.675179   314A      3.706104  
     315A      3.709333   316A      3.740276   317A      3.749968  
     318A      3.762032   319A      3.764041   320A      3.801793  
     321A      3.815883   322A      3.853453   323A      3.885452  
     324A      3.885837   325A      3.919696   326A      3.933888  
     327A      3.942951   328A      3.979002   329A      3.985941  
     330A      4.044182   331A      4.050152   332A      4.072809  
     333A      4.121148   334A      4.135704   335A      4.141123  
     336A      4.162097   337A      4.184578   338A      4.207591  
     339A      4.213030   340A      4.240835   341A      4.244418  
     342A      4.279848   343A      4.283349   344A      4.328038  
     345A      4.328623   346A      4.359869   347A      4.361406  
     348A      4.394710   349A      4.396483   350A      4.415408  
     351A      4.420803   352A      4.439365   353A      4.464021  
     354A      4.492291   355A      4.567734   356A      4.602500  
     357A      4.631871   358A      4.656589   359A      4.664145  
     360A      4.677512   361A      4.698561   362A      4.736307  
     363A      4.757098   364A      4.771306   365A      4.828353  
     366A      4.840713   367A      4.877901   368A      4.890349  
     369A      4.928541   370A      4.943177   371A      4.962843  
     372A      5.018824   373A      5.022547   374A      5.045372  
     375A      5.067326   376A      5.092693   377A      5.095298  
     378A      5.119955   379A      5.129024   380A      5.180236  
     381A      5.229564   382A      5.232074   383A      5.307186  
     384A      5.346310   385A      5.355536   386A      5.393674  
     387A      5.437552   388A      5.469917   389A      5.475278  
     390A      5.512836   391A      5.513144   392A      5.523142  
     393A      5.563788   394A      5.596828   395A      5.641942  
     396A      5.665566   397A      5.701904   398A      5.762485  
     399A      5.767864   400A      5.772511   401A      5.801894  
     402A      5.811555   403A      5.870881   404A      5.899578  
     405A      5.973442   406A      6.010978   407A      6.017297  
     408A      6.035958   409A      6.088631   410A      6.094973  
     411A      6.183273   412A      6.247119   413A      6.269051  
     414A      6.437780   415A      6.465112   416A      6.547659  
     417A      6.580895   418A      6.656007   419A      6.658582  
     420A      6.663324   421A      6.706311   422A      6.732095  
     423A      6.754625   424A      6.798699   425A      6.835617  
     426A      6.840467   427A      6.907629   428A      6.931346  
     429A      6.978384   430A      6.993585   431A      7.123960  
     432A      7.134924   433A      7.206978   434A      7.235962  
     435A      7.279627   436A      7.353934   437A      7.364001  
     438A      7.375658   439A      7.381287   440A      7.390890  
     441A      7.467435   442A      7.633003   443A      7.640699  
     444A      7.676806   445A      7.750765   446A      7.792337  
     447A      7.847446   448A      7.909998   449A      7.931302  
     450A      7.972201   451A      8.021489   452A      8.098094  
     453A     15.826124   454A     16.101292   455A     16.409195  
     456A     17.123879   457A     18.287239   458A     19.360521  
     459A     19.793347   460A     20.696098  

    Final Occupation by Irrep:
              A 
    DOCC [    29 ]

  @DF-RHF Final Energy:  -412.61445740495674

   => Energetics <=

    Nuclear Repulsion Energy =            356.0321070870738254
    One-Electron Energy =               -1268.3202021429290198
    Two-Electron Energy =                 499.6736376508983994
    Total Energy =                       -412.6144574049567382

Computation Completed

*** tstop() called on node142.bme.utexas.edu at Tue Nov  3 17:53:31 2020
Module time:
	user time   =     194.07 seconds =       3.23 minutes
	system time =       8.61 seconds =       0.14 minutes
	total time  =         39 seconds =       0.65 minutes
Total time:
	user time   =     194.07 seconds =       3.23 minutes
	system time =       8.61 seconds =       0.14 minutes
	total time  =         39 seconds =       0.65 minutes
   => Loading Basis Set <=

    Name: (AUG-CC-PVTZ AUX)
    Role: RIFIT
    Keyword: DF_BASIS_MP2
    atoms 1, 9        entry N          line   206 file /home/xy3866/psi4conda/share/psi4/basis/aug-cc-pvtz-ri.gbs 
    atoms 2, 6, 8, 10 entry H          line    30 file /home/xy3866/psi4conda/share/psi4/basis/aug-cc-pvtz-ri.gbs 
    atoms 3, 5, 7, 11 entry C          line   148 file /home/xy3866/psi4conda/share/psi4/basis/aug-cc-pvtz-ri.gbs 
    atoms 4, 12       entry O          line   264 file /home/xy3866/psi4conda/share/psi4/basis/aug-cc-pvtz-ri.gbs 


*** tstart() called on node142.bme.utexas.edu
*** at Tue Nov  3 17:53:31 2020


  //>>>>>>>>>>>>>>>>>>>>>>>>>>>>>>>>>>>//
  //               DFMP2               //
  //<<<<<<<<<<<<<<<<<<<<<<<<<<<<<<<<<<<//

	 --------------------------------------------------------
	                          DF-MP2                         
	      2nd-Order Density-Fitted Moller-Plesset Theory     
	              RMP2 Wavefunction,   8 Threads             
	                                                         
	        Rob Parrish, Justin Turney, Andy Simmonett,      
	           Ed Hohenstein, and C. David Sherrill          
	 --------------------------------------------------------

   => Auxiliary Basis Set <=

  Basis Set: (AUG-CC-PVTZ AUX)
    Blend: AUG-CC-PVTZ-RI
    Number of shells: 280
    Number of basis function: 1032
    Number of Cartesian functions: 1308
    Spherical Harmonics?: true
    Max angular momentum: 4

	 --------------------------------------------------------
	                 NBF =   460, NAUX =  1032
	 --------------------------------------------------------
	   CLASS    FOCC     OCC    AOCC    AVIR     VIR    FVIR
	   PAIRS       0      29      29     431     431       0
	 --------------------------------------------------------

  DFHelper Memory: AOs need 1.624 GiB; user supplied 22.352 GiB. Using in-core AOs.


         ------------------------------------------------------------
                                     CPHF                           
                                  Rob Parrish                       
         ------------------------------------------------------------

  ==> Geometry <==

    Molecular point group: c1
    Full point group: C1

    Geometry (in Angstrom), charge = 0, multiplicity = 1:

       Center              X                  Y                   Z               Mass       
    ------------   -----------------  -----------------  -----------------  -----------------
         N           -0.032708760956    -0.943374708915    -0.000099080733    14.003074004430
         H           -0.045556760956    -1.960291708915     0.000026919267     1.007825032230
         C           -1.291399760956    -0.312831708915    -0.000276080733    12.000000000000
         O           -2.322786760956    -0.978285708915     0.000186919267    15.994914619570
         C           -1.205221760956     1.141804291085     0.000003919267    12.000000000000
         H           -2.125111760956     1.711390291085     0.000187919267     1.007825032230
         C            0.004073239044     1.745561291085     0.000029919267    12.000000000000
         H            0.123968239044     2.824176291085     0.000156919267     1.007825032230
         N            1.175259239044     1.021373291085    -0.000008080733    14.003074004430
         H            1.988553039044     1.436364291085     0.000069419267     1.007825032230
         C            1.227128239044    -0.367144708915    -0.000084080733    12.000000000000
         O            2.275548239044    -0.998837708915     0.000123919267    15.994914619570

  Nuclear repulsion =  356.032107087073825
  Reference energy  = -412.614457404956738

  ==> Basis Set <==

  Basis Set: AUG-CC-PVTZ
    Blend: AUG-CC-PVTZ
    Number of shells: 148
    Number of basis function: 460
    Number of Cartesian functions: 540
    Spherical Harmonics?: true
    Max angular momentum: 3

  ==> CGRSolver (by Rob Parrish) <==

   Number of roots    =         1
   Preconditioning    =    JACOBI
   Convergence cutoff =     1E-06
   Maximum iterations =       100

  ==> CPHFRHamiltonian (by Rob Parrish) <== 

  ==> MemDFJK: Density-Fitted J/K Matrices <==

    J tasked:                   Yes
    K tasked:                   Yes
    wK tasked:                   No
    OpenMP threads:               8
    Memory [MiB]:             22888
    Algorithm:                 Core
    Schwarz Cutoff:           1E-12
    Mask sparsity (%):       2.5529
    Fitting Condition:        1E-10

   => Auxiliary Basis Set <=

  Basis Set: (AUG-CC-PVTZ AUX)
    Blend: AUG-CC-PVTZ-JKFIT
    Number of shells: 296
    Number of basis function: 1016
    Number of Cartesian functions: 1268
    Spherical Harmonics?: true
    Max angular momentum: 4

  ==> CPHF Iterations <==

  => Iterations <=

             Iter  Converged  Remaining    Residual
  CGR           1          0          1   1.391E-01
  CGR           2          0          1   4.334E-02
  CGR           3          0          1   1.652E-02
  CGR           4          0          1   3.907E-03
  CGR           5          0          1   1.314E-03
  CGR           6          0          1   5.976E-04
  CGR           7          0          1   2.385E-04
  CGR           8          0          1   9.310E-05
  CGR           9          0          1   3.299E-05
  CGR          10          0          1   1.004E-05
  CGR          11          0          1   3.412E-06
  CGR          12          0          1   1.107E-06
  CGR          13          1          0   4.039E-07

    CGRSolver converged.

	-----------------------------------------------------------
	 ==================> DF-MP2 Energies <==================== 
	-----------------------------------------------------------
	 Reference Energy          =    -412.6144574049567382 [Eh]
	 Singles Energy            =      -0.0000000000000000 [Eh]
	 Same-Spin Energy          =      -0.4139980679925273 [Eh]
	 Opposite-Spin Energy      =      -1.2268727241620030 [Eh]
	 Correlation Energy        =      -1.6408707921545302 [Eh]
	 Total Energy              =    -414.2553281971112824 [Eh]
	-----------------------------------------------------------
	 ================> DF-SCS-MP2 Energies <================== 
	-----------------------------------------------------------
	 SCS Same-Spin Scale       =       0.3333333333333333 [-]
	 SCS Opposite-Spin Scale   =       1.2000000000000000 [-]
	 SCS Same-Spin Energy      =      -0.1379993559975091 [Eh]
	 SCS Opposite-Spin Energy  =      -1.4722472689944035 [Eh]
	 SCS Correlation Energy    =      -1.6102466249919125 [Eh]
	 SCS Total Energy          =    -414.2247040299486684 [Eh]
	-----------------------------------------------------------



Properties will be evaluated at   0.000000,  -0.000000,   0.000000 [a0]

Properties computed using the MP2 density matrix

  Nuclear Dipole Moment: [e a0]
     X:    -0.0581      Y:     3.7511      Z:     0.0004

  Electronic Dipole Moment: [e a0]
     X:     0.4668      Y:    -2.1300      Z:    -0.0006

  Dipole Moment: [e a0]
     X:     0.4088      Y:     1.6210      Z:    -0.0002     Total:     1.6718

  Dipole Moment: [D]
     X:     1.0389      Y:     4.1202      Z:    -0.0005     Total:     4.2492


*** tstop() called on node142.bme.utexas.edu at Tue Nov  3 17:54:51 2020
Module time:
	user time   =     519.44 seconds =       8.66 minutes
	system time =      12.81 seconds =       0.21 minutes
	total time  =         80 seconds =       1.33 minutes
Total time:
	user time   =     713.66 seconds =      11.89 minutes
	system time =      21.43 seconds =       0.36 minutes
	total time  =        119 seconds =       1.98 minutes

    Psi4 stopped on: Tuesday, 03 November 2020 05:54PM
    Psi4 wall time for execution: 0:01:59.04

*** Psi4 exiting successfully. Buy a developer a beer!
