217_4-Aminopyridine Gaussian SP Calculation on node58.bme.utexas.edu    
Freq      RMP2-FC                                                     6-31G(d)            
Number of atoms                            I               13
Info1-9                                    I   N=           9
          24          23        1002           0           0         100
           6           2           1
Charge                                     I                0
Multiplicity                               I                1
Number of electrons                        I               50
Number of alpha electrons                  I               25
Number of beta electrons                   I               25
Number of basis functions                  I              117
Number of independent functions            I              117
Number of point charges in /Mol/           I                0
Number of translation vectors              I                0
Atomic numbers                             I   N=          13
           7           7           6           6           6           6
           6           1           1           1           1           1
           1
Nuclear charges                            R   N=          13
  7.00000000E+00  7.00000000E+00  6.00000000E+00  6.00000000E+00  6.00000000E+00
  6.00000000E+00  6.00000000E+00  1.00000000E+00  1.00000000E+00  1.00000000E+00
  1.00000000E+00  1.00000000E+00  1.00000000E+00
Current cartesian coordinates              R   N=          39
  4.38803188E+00 -2.08468040E-06 -1.52654033E-01 -3.60346343E+00  2.65640631E-08
  1.87982613E-02  1.75858464E+00  1.52241927E-07 -3.43905116E-03  3.76946332E-01
  2.25864211E+00 -1.41441029E-02  3.76946287E-01 -2.25864207E+00 -1.41474614E-02
 -2.25028771E+00  2.15280409E+00  6.90621626E-03 -2.25028749E+00 -2.15280413E+00
  6.91205872E-03  1.33862809E+00  4.07570568E+00 -2.77296276E-02  1.33862865E+00
 -4.07570509E+00 -2.77444099E-02 -3.34273646E+00  3.89679602E+00  1.28513055E-02
 -3.34273621E+00 -3.89679619E+00  1.28460468E-02  5.22241272E+00 -1.58113676E+00
  5.37139541E-01  5.22241172E+00  1.58114982E+00  5.37101589E-01
Force Field                                I                0
Int Atom Types                             I   N=          13
           0           0           0           0           0           0
           0           0           0           0           0           0
           0
MM charges                                 R   N=          13
  0.00000000E+00  0.00000000E+00  0.00000000E+00  0.00000000E+00  0.00000000E+00
  0.00000000E+00  0.00000000E+00  0.00000000E+00  0.00000000E+00  0.00000000E+00
  0.00000000E+00  0.00000000E+00  0.00000000E+00
Integer atomic weights                     I   N=          13
          14          14          12          12          12          12
          12           1           1           1           1           1
           1
Real atomic weights                        R   N=          13
  1.40030740E+01  1.40030740E+01  1.20000000E+01  1.20000000E+01  1.20000000E+01
  1.20000000E+01  1.20000000E+01  1.00782504E+00  1.00782504E+00  1.00782504E+00
  1.00782504E+00  1.00782504E+00  1.00782504E+00
Atom fragment info                         I   N=          13
           0           0           0           0           0           0
           0           0           0           0           0           0
           0
Atom residue num                           I   N=          13
           0           0           0           0           0           0
           0           0           0           0           0           0
           0
Nuclear spins                              I   N=          13
           2           2           0           0           0           0
           0           1           1           1           1           1
           1
Nuclear ZEff                               R   N=          13
 -4.55000000E+00 -4.55000000E+00 -3.60000000E+00 -3.60000000E+00 -3.60000000E+00
 -3.60000000E+00 -3.60000000E+00 -1.00000000E+00 -1.00000000E+00 -1.00000000E+00
 -1.00000000E+00 -1.00000000E+00 -1.00000000E+00
Nuclear QMom                               R   N=          13
  2.04400000E+00  2.04400000E+00  0.00000000E+00  0.00000000E+00  0.00000000E+00
  0.00000000E+00  0.00000000E+00  0.00000000E+00  0.00000000E+00  0.00000000E+00
  0.00000000E+00  0.00000000E+00  0.00000000E+00
Nuclear GFac                               R   N=          13
  4.03761000E-01  4.03761000E-01  0.00000000E+00  0.00000000E+00  0.00000000E+00
  0.00000000E+00  0.00000000E+00  2.79284600E+00  2.79284600E+00  2.79284600E+00
  2.79284600E+00  2.79284600E+00  2.79284600E+00
MicOpt                                     I   N=          13
          -1          -1          -1          -1          -1          -1
          -1          -1          -1          -1          -1          -1
          -1
Number of contracted shells                I               40
Number of primitive shells                 I              101
Pure/Cartesian d shells                    I                1
Pure/Cartesian f shells                    I                0
Highest angular momentum                   I                2
Largest degree of contraction              I                6
Shell types                                I   N=          40
           0          -1          -1           2           0          -1
          -1           2           0          -1          -1           2
           0          -1          -1           2           0          -1
          -1           2           0          -1          -1           2
           0          -1          -1           2           0           0
           0           0           0           0           0           0
           0           0           0           0
Number of primitives per shell             I   N=          40
           6           3           1           1           6           3
           1           1           6           3           1           1
           6           3           1           1           6           3
           1           1           6           3           1           1
           6           3           1           1           3           1
           3           1           3           1           3           1
           3           1           3           1
Shell to atom map                          I   N=          40
           1           1           1           1           2           2
           2           2           3           3           3           3
           4           4           4           4           5           5
           5           5           6           6           6           6
           7           7           7           7           8           8
           9           9          10          10          11          11
          12          12          13          13
Primitive exponents                        R   N=         101
  4.17351146E+03  6.27457911E+02  1.42902093E+02  4.02343293E+01  1.28202129E+01
  4.39043701E+00  1.16263619E+01  2.71627981E+00  7.72218397E-01  2.12031498E-01
  8.00000000E-01  4.17351146E+03  6.27457911E+02  1.42902093E+02  4.02343293E+01
  1.28202129E+01  4.39043701E+00  1.16263619E+01  2.71627981E+00  7.72218397E-01
  2.12031498E-01  8.00000000E-01  3.04752488E+03  4.57369518E+02  1.03948685E+02
  2.92101553E+01  9.28666296E+00  3.16392696E+00  7.86827235E+00  1.88128854E+00
  5.44249258E-01  1.68714478E-01  8.00000000E-01  3.04752488E+03  4.57369518E+02
  1.03948685E+02  2.92101553E+01  9.28666296E+00  3.16392696E+00  7.86827235E+00
  1.88128854E+00  5.44249258E-01  1.68714478E-01  8.00000000E-01  3.04752488E+03
  4.57369518E+02  1.03948685E+02  2.92101553E+01  9.28666296E+00  3.16392696E+00
  7.86827235E+00  1.88128854E+00  5.44249258E-01  1.68714478E-01  8.00000000E-01
  3.04752488E+03  4.57369518E+02  1.03948685E+02  2.92101553E+01  9.28666296E+00
  3.16392696E+00  7.86827235E+00  1.88128854E+00  5.44249258E-01  1.68714478E-01
  8.00000000E-01  3.04752488E+03  4.57369518E+02  1.03948685E+02  2.92101553E+01
  9.28666296E+00  3.16392696E+00  7.86827235E+00  1.88128854E+00  5.44249258E-01
  1.68714478E-01  8.00000000E-01  1.87311370E+01  2.82539436E+00  6.40121692E-01
  1.61277759E-01  1.87311370E+01  2.82539436E+00  6.40121692E-01  1.61277759E-01
  1.87311370E+01  2.82539436E+00  6.40121692E-01  1.61277759E-01  1.87311370E+01
  2.82539436E+00  6.40121692E-01  1.61277759E-01  1.87311370E+01  2.82539436E+00
  6.40121692E-01  1.61277759E-01  1.87311370E+01  2.82539436E+00  6.40121692E-01
  1.61277759E-01
Contraction coefficients                   R   N=         101
  1.83477216E-03  1.39946270E-02  6.85865518E-02  2.32240873E-01  4.69069948E-01
  3.60455199E-01 -1.14961182E-01 -1.69117479E-01  1.14585195E+00  1.00000000E+00
  1.00000000E+00  1.83477216E-03  1.39946270E-02  6.85865518E-02  2.32240873E-01
  4.69069948E-01  3.60455199E-01 -1.14961182E-01 -1.69117479E-01  1.14585195E+00
  1.00000000E+00  1.00000000E+00  1.83473713E-03  1.40373228E-02  6.88426223E-02
  2.32184443E-01  4.67941348E-01  3.62311985E-01 -1.19332420E-01 -1.60854152E-01
  1.14345644E+00  1.00000000E+00  1.00000000E+00  1.83473713E-03  1.40373228E-02
  6.88426223E-02  2.32184443E-01  4.67941348E-01  3.62311985E-01 -1.19332420E-01
 -1.60854152E-01  1.14345644E+00  1.00000000E+00  1.00000000E+00  1.83473713E-03
  1.40373228E-02  6.88426223E-02  2.32184443E-01  4.67941348E-01  3.62311985E-01
 -1.19332420E-01 -1.60854152E-01  1.14345644E+00  1.00000000E+00  1.00000000E+00
  1.83473713E-03  1.40373228E-02  6.88426223E-02  2.32184443E-01  4.67941348E-01
  3.62311985E-01 -1.19332420E-01 -1.60854152E-01  1.14345644E+00  1.00000000E+00
  1.00000000E+00  1.83473713E-03  1.40373228E-02  6.88426223E-02  2.32184443E-01
  4.67941348E-01  3.62311985E-01 -1.19332420E-01 -1.60854152E-01  1.14345644E+00
  1.00000000E+00  1.00000000E+00  3.34946043E-02  2.34726953E-01  8.13757326E-01
  1.00000000E+00  3.34946043E-02  2.34726953E-01  8.13757326E-01  1.00000000E+00
  3.34946043E-02  2.34726953E-01  8.13757326E-01  1.00000000E+00  3.34946043E-02
  2.34726953E-01  8.13757326E-01  1.00000000E+00  3.34946043E-02  2.34726953E-01
  8.13757326E-01  1.00000000E+00  3.34946043E-02  2.34726953E-01  8.13757326E-01
  1.00000000E+00
P(S=P) Contraction coefficients            R   N=         101
  0.00000000E+00  0.00000000E+00  0.00000000E+00  0.00000000E+00  0.00000000E+00
  0.00000000E+00  6.75797439E-02  3.23907296E-01  7.40895140E-01  1.00000000E+00
  0.00000000E+00  0.00000000E+00  0.00000000E+00  0.00000000E+00  0.00000000E+00
  0.00000000E+00  0.00000000E+00  6.75797439E-02  3.23907296E-01  7.40895140E-01
  1.00000000E+00  0.00000000E+00  0.00000000E+00  0.00000000E+00  0.00000000E+00
  0.00000000E+00  0.00000000E+00  0.00000000E+00  6.89990666E-02  3.16423961E-01
  7.44308291E-01  1.00000000E+00  0.00000000E+00  0.00000000E+00  0.00000000E+00
  0.00000000E+00  0.00000000E+00  0.00000000E+00  0.00000000E+00  6.89990666E-02
  3.16423961E-01  7.44308291E-01  1.00000000E+00  0.00000000E+00  0.00000000E+00
  0.00000000E+00  0.00000000E+00  0.00000000E+00  0.00000000E+00  0.00000000E+00
  6.89990666E-02  3.16423961E-01  7.44308291E-01  1.00000000E+00  0.00000000E+00
  0.00000000E+00  0.00000000E+00  0.00000000E+00  0.00000000E+00  0.00000000E+00
  0.00000000E+00  6.89990666E-02  3.16423961E-01  7.44308291E-01  1.00000000E+00
  0.00000000E+00  0.00000000E+00  0.00000000E+00  0.00000000E+00  0.00000000E+00
  0.00000000E+00  0.00000000E+00  6.89990666E-02  3.16423961E-01  7.44308291E-01
  1.00000000E+00  0.00000000E+00  0.00000000E+00  0.00000000E+00  0.00000000E+00
  0.00000000E+00  0.00000000E+00  0.00000000E+00  0.00000000E+00  0.00000000E+00
  0.00000000E+00  0.00000000E+00  0.00000000E+00  0.00000000E+00  0.00000000E+00
  0.00000000E+00  0.00000000E+00  0.00000000E+00  0.00000000E+00  0.00000000E+00
  0.00000000E+00  0.00000000E+00  0.00000000E+00  0.00000000E+00  0.00000000E+00
  0.00000000E+00
Coordinates of each shell                  R   N=         120
  4.38803188E+00 -2.08468040E-06 -1.52654033E-01  4.38803188E+00 -2.08468040E-06
 -1.52654033E-01  4.38803188E+00 -2.08468040E-06 -1.52654033E-01  4.38803188E+00
 -2.08468040E-06 -1.52654033E-01 -3.60346343E+00  2.65640631E-08  1.87982613E-02
 -3.60346343E+00  2.65640631E-08  1.87982613E-02 -3.60346343E+00  2.65640631E-08
  1.87982613E-02 -3.60346343E+00  2.65640631E-08  1.87982613E-02  1.75858464E+00
  1.52241927E-07 -3.43905116E-03  1.75858464E+00  1.52241927E-07 -3.43905116E-03
  1.75858464E+00  1.52241927E-07 -3.43905116E-03  1.75858464E+00  1.52241927E-07
 -3.43905116E-03  3.76946332E-01  2.25864211E+00 -1.41441029E-02  3.76946332E-01
  2.25864211E+00 -1.41441029E-02  3.76946332E-01  2.25864211E+00 -1.41441029E-02
  3.76946332E-01  2.25864211E+00 -1.41441029E-02  3.76946287E-01 -2.25864207E+00
 -1.41474614E-02  3.76946287E-01 -2.25864207E+00 -1.41474614E-02  3.76946287E-01
 -2.25864207E+00 -1.41474614E-02  3.76946287E-01 -2.25864207E+00 -1.41474614E-02
 -2.25028771E+00  2.15280409E+00  6.90621626E-03 -2.25028771E+00  2.15280409E+00
  6.90621626E-03 -2.25028771E+00  2.15280409E+00  6.90621626E-03 -2.25028771E+00
  2.15280409E+00  6.90621626E-03 -2.25028749E+00 -2.15280413E+00  6.91205872E-03
 -2.25028749E+00 -2.15280413E+00  6.91205872E-03 -2.25028749E+00 -2.15280413E+00
  6.91205872E-03 -2.25028749E+00 -2.15280413E+00  6.91205872E-03  1.33862809E+00
  4.07570568E+00 -2.77296276E-02  1.33862809E+00  4.07570568E+00 -2.77296276E-02
  1.33862865E+00 -4.07570509E+00 -2.77444099E-02  1.33862865E+00 -4.07570509E+00
 -2.77444099E-02 -3.34273646E+00  3.89679602E+00  1.28513055E-02 -3.34273646E+00
  3.89679602E+00  1.28513055E-02 -3.34273621E+00 -3.89679619E+00  1.28460468E-02
 -3.34273621E+00 -3.89679619E+00  1.28460468E-02  5.22241272E+00 -1.58113676E+00
  5.37139541E-01  5.22241272E+00 -1.58113676E+00  5.37139541E-01  5.22241172E+00
  1.58114982E+00  5.37101589E-01  5.22241172E+00  1.58114982E+00  5.37101589E-01
Constraint Structure                       R   N=          39
  4.38803188E+00 -2.08468040E-06 -1.52654033E-01 -3.60346343E+00  2.65640631E-08
  1.87982613E-02  1.75858464E+00  1.52241927E-07 -3.43905116E-03  3.76946332E-01
  2.25864211E+00 -1.41441029E-02  3.76946287E-01 -2.25864207E+00 -1.41474614E-02
 -2.25028771E+00  2.15280409E+00  6.90621626E-03 -2.25028749E+00 -2.15280413E+00
  6.91205872E-03  1.33862809E+00  4.07570568E+00 -2.77296276E-02  1.33862865E+00
 -4.07570509E+00 -2.77444099E-02 -3.34273646E+00  3.89679602E+00  1.28513055E-02
 -3.34273621E+00 -3.89679619E+00  1.28460468E-02  5.22241272E+00 -1.58113676E+00
  5.37139541E-01  5.22241172E+00  1.58114982E+00  5.37101589E-01
Num ILSW                                   I              100
ILSW                                       I   N=         100
           0           1           0           0           2           0
           0           0           0           0           0          -1
           0           0           0           0           0           0
           0           0           0           0           1           0
           1           0           0           0           0           0
           0           0      100000           0          -1           0
           0           0           0           0           0           0
           0           0           0           1           1           0
           0           0           1           0           0           0
           0           0           4          40           0           0
           0           0           0           0           0           0
           0           0           0           0           0           0
           0           0           0           0           0           0
           0           0           0           0           0           0
           0           0           0           0           0           0
           0           0           0           0           0           0
           0           0           0           0
Num RLSW                                   I               40
RLSW                                       R   N=          40
  1.00000000E+00  1.00000000E+00  1.00000000E+00  1.00000000E+00  1.00000000E+00
  0.00000000E+00  0.00000000E+00  1.00000000E+00  0.00000000E+00  0.00000000E+00
  0.00000000E+00  0.00000000E+00  1.00000000E+00  0.00000000E+00  0.00000000E+00
  0.00000000E+00  0.00000000E+00  1.00000000E+00  0.00000000E+00  0.00000000E+00
  0.00000000E+00  0.00000000E+00  1.00000000E+00  0.00000000E+00  0.00000000E+00
  0.00000000E+00  0.00000000E+00  1.00000000E+00  0.00000000E+00  0.00000000E+00
  0.00000000E+00  0.00000000E+00  0.00000000E+00  0.00000000E+00  0.00000000E+00
  0.00000000E+00  0.00000000E+00  0.00000000E+00  1.00000000E+00  1.00000000E+00
MxBond                                     I                3
NBond                                      I   N=          13
           3           2           3           3           3           3
           3           1           1           1           1           1
           1
IBond                                      I   N=          39
           3          12          13           6           7           0
           1           4           5           3           6           8
           3           7           9           2           4          10
           2           5          11           4           0           0
           5           0           0           6           0           0
           7           0           0           1           0           0
           1           0           0
RBond                                      R   N=          39
  1.00000000E+00  1.00000000E+00  1.00000000E+00  1.50000000E+00  1.50000000E+00
  0.00000000E+00  1.00000000E+00  1.50000000E+00  1.50000000E+00  1.50000000E+00
  1.50000000E+00  1.00000000E+00  1.50000000E+00  1.50000000E+00  1.00000000E+00
  1.50000000E+00  1.50000000E+00  1.00000000E+00  1.50000000E+00  1.50000000E+00
  1.00000000E+00  1.00000000E+00  0.00000000E+00  0.00000000E+00  1.00000000E+00
  0.00000000E+00  0.00000000E+00  1.00000000E+00  0.00000000E+00  0.00000000E+00
  1.00000000E+00  0.00000000E+00  0.00000000E+00  1.00000000E+00  0.00000000E+00
  0.00000000E+00  1.00000000E+00  0.00000000E+00  0.00000000E+00
Virial Ratio                               R      2.002546627042475E+00
SCF Energy                                 R     -3.017262693092168E+02
MP2 Energy                                 R     -3.026786366511246E+02
Total Energy                               R     -3.026786366511246E+02
Post-SCF wavefunction norm                 R      1.632504355881639E+00
RMS Force                                  R      5.744467755886101E-07
RMS Density                                R      1.147726423156483E-09
External E-field                           R   N=          35
  0.00000000E+00  0.00000000E+00  0.00000000E+00  0.00000000E+00  0.00000000E+00
  0.00000000E+00  0.00000000E+00  0.00000000E+00  0.00000000E+00  0.00000000E+00
  0.00000000E+00  0.00000000E+00  0.00000000E+00  0.00000000E+00  0.00000000E+00
  0.00000000E+00  0.00000000E+00  0.00000000E+00  0.00000000E+00  0.00000000E+00
  0.00000000E+00  0.00000000E+00  0.00000000E+00  0.00000000E+00  0.00000000E+00
  0.00000000E+00  0.00000000E+00  0.00000000E+00  0.00000000E+00  0.00000000E+00
  0.00000000E+00  0.00000000E+00  0.00000000E+00  0.00000000E+00  0.00000000E+00
IOpCl                                      I                0
IROHF                                      I                0
Alpha Orbital Energies                     R   N=         117
 -1.55851272E+01 -1.55505110E+01 -1.13005599E+01 -1.12721509E+01 -1.12721359E+01
 -1.12301723E+01 -1.12301597E+01 -1.25125994E+00 -1.21976031E+00 -1.04709446E+00
 -1.02361250E+00 -8.52899814E-01 -8.38037552E-01 -7.14334129E-01 -7.05904014E-01
 -6.50496285E-01 -6.18133592E-01 -6.02875116E-01 -5.86435952E-01 -5.49147851E-01
 -5.06209230E-01 -4.79659062E-01 -4.07090284E-01 -3.42345106E-01 -3.27285180E-01
  1.42567015E-01  1.44410000E-01  2.15252877E-01  2.54959169E-01  2.61815162E-01
  3.09469819E-01  3.21116843E-01  3.38609719E-01  3.63393178E-01  3.92726139E-01
  5.01061440E-01  5.08566165E-01  5.12814999E-01  5.22220867E-01  6.57984809E-01
  6.89374175E-01  7.36951746E-01  7.49468758E-01  7.61176993E-01  8.12973752E-01
  8.18677700E-01  8.31155622E-01  8.31485832E-01  8.38140228E-01  9.00572207E-01
  9.05009027E-01  9.46895616E-01  9.55828261E-01  9.63946601E-01  1.03320012E+00
  1.08980526E+00  1.09334018E+00  1.10823893E+00  1.11893907E+00  1.14461126E+00
  1.16586609E+00  1.17499322E+00  1.17710817E+00  1.19743548E+00  1.23779822E+00
  1.24206590E+00  1.28749279E+00  1.34464004E+00  1.39652964E+00  1.39786283E+00
  1.46554545E+00  1.51809927E+00  1.52417335E+00  1.62208818E+00  1.70480538E+00
  1.73230305E+00  1.75871961E+00  1.77166033E+00  1.78599586E+00  1.81403450E+00
  1.95536777E+00  2.07146191E+00  2.09823395E+00  2.10077649E+00  2.21204893E+00
  2.21323319E+00  2.25241564E+00  2.30455687E+00  2.36665699E+00  2.43232567E+00
  2.43763605E+00  2.49185338E+00  2.51469921E+00  2.52776296E+00  2.60357003E+00
  2.61067610E+00  2.68492203E+00  2.78608673E+00  2.79875283E+00  2.81801764E+00
  2.92123215E+00  2.92307136E+00  3.01077081E+00  3.04503843E+00  3.04866810E+00
  3.10621537E+00  3.21476435E+00  3.27423269E+00  3.46546141E+00  3.76001576E+00
  4.24718908E+00  4.47641269E+00  4.52760919E+00  4.56147623E+00  4.68101242E+00
  4.74736568E+00  5.04899546E+00
Alpha MO coefficients                      R   N=       13689
  9.94990149E-01  2.51821086E-02 -3.47511334E-04  1.30896668E-08  1.05728395E-03
 -3.66270556E-03  1.15196392E-03 -1.43727895E-08 -7.76888001E-04 -3.47258833E-03
 -3.43005208E-03 -3.26354843E-03 -1.09629551E-10 -1.42767994E-05  2.26676972E-09
  3.50036856E-06 -2.40095978E-05 -8.56810663E-06 -2.54668792E-11  2.06664555E-06
  2.03014501E-04  7.53421888E-05 -1.70012620E-09 -8.13040723E-06 -1.59773211E-05
 -7.25113793E-06 -1.88759230E-05 -1.46278275E-10 -3.15473596E-07  5.78090488E-11
  2.72321557E-05  3.32029385E-04  1.16766696E-04 -6.12631323E-10 -1.68170823E-05
  8.12806249E-04  2.73414075E-03  1.31197828E-08  1.35177765E-04 -1.63798698E-04
 -5.76492519E-05 -5.90371817E-05 -3.16003939E-10  8.34417048E-06  3.44908141E-10
 -1.03116241E-05 -5.84859806E-05 -2.22088612E-06 -5.86513969E-06 -1.29198956E-06
  9.42193553E-04 -6.28598135E-04 -7.43340838E-04 -4.02506043E-05 -4.69430201E-05
  5.41218174E-05 -4.26521470E-05  3.37120888E-05 -3.34528261E-06  8.22245323E-06
 -1.03117677E-05 -5.84871568E-05 -2.22043716E-06  5.86533408E-06 -1.29170317E-06
  9.42211968E-04 -6.28592101E-04  7.43350719E-04 -4.02482346E-05 -4.69424340E-05
  5.41220671E-05 -4.26523920E-05 -3.37117352E-05 -3.34529569E-06 -8.22233212E-06
 -6.73697245E-06 -1.99060900E-05 -3.20180895E-05  1.82636820E-05  1.06949681E-06
 -5.55732885E-04 -1.33638248E-04  3.14782229E-05  1.32776677E-05 -3.90176023E-06
 -6.97261801E-06 -2.26201237E-05  5.26114651E-06  1.61220786E-06  1.30755670E-08
 -6.73687950E-06 -1.99055533E-05 -3.20181905E-05 -1.82634401E-05  1.06956051E-06
 -5.55736600E-04 -1.33638088E-04 -3.14845258E-05  1.32792377E-05 -3.90197496E-06
 -6.97264464E-06 -2.26198917E-05 -5.26108387E-06  1.61223243E-06 -1.29627134E-08
  4.05673565E-05  2.87248130E-04  4.05671849E-05  2.87249748E-04  1.00466322E-05
  4.20908804E-05  1.00463175E-05  4.20892077E-05  3.13319040E-04  4.03631862E-04
  3.13320461E-04  4.03635450E-04 -2.37669233E-05 -5.99002063E-05 -6.78361797E-07
 -4.22360981E-11  3.79410860E-07  8.55043090E-04 -2.94707716E-04  6.51750562E-10
  3.49653610E-05 -1.27741947E-05 -2.29448949E-05 -2.48703379E-05  6.68122364E-12
 -4.66068128E-06 -3.93887094E-11  9.95232887E-01  2.49224028E-02  2.01082860E-03
  1.14001689E-10 -1.38923566E-05 -6.29239905E-03 -2.98596683E-03 -2.32694756E-11
  2.28297328E-05 -2.84274272E-03 -2.62136083E-03 -3.11438669E-03  1.09711940E-10
 -3.39767572E-06 -1.68151833E-10 -3.68498874E-05 -1.61315095E-04  3.07512294E-05
 -1.61411674E-11  6.06983128E-07  3.14358512E-03 -2.35476796E-03  1.53214029E-09
  1.48252147E-05 -4.69371958E-05 -2.64318910E-05 -6.53969539E-05 -1.85652539E-11
  5.21240977E-06 -2.63316556E-10  4.08916917E-05  1.87179063E-04  4.02897209E-05
  9.61719112E-06  4.46126858E-09 -3.50237273E-03  1.11336178E-03  2.05583581E-03
 -2.36446322E-05  1.88466842E-05  2.14730482E-05  4.62438632E-05 -5.58709308E-05
  1.03358717E-06  2.85313591E-06  4.08916661E-05  1.87178925E-04  4.02896929E-05
 -9.61719326E-06  4.61851369E-09 -3.50236988E-03  1.11336268E-03 -2.05583448E-03
 -2.36528478E-05  1.88467152E-05  2.14730443E-05  4.62438064E-05  5.58709456E-05
  1.03341942E-06 -2.85389886E-06  1.48838279E-05  3.06292164E-04 -3.45621592E-05
 -7.46798174E-05  1.31725599E-06  4.20496080E-03  9.76094529E-04 -2.13490508E-03
 -6.29033472E-06 -1.86003135E-04 -3.82216592E-04 -7.78610531E-05 -2.60208216E-04
  1.28768997E-06  3.09050386E-06  1.48838213E-05  3.06292339E-04 -3.45622221E-05
  7.46800241E-05  1.31659401E-06  4.20496040E-03  9.76093995E-04  2.13490411E-03
 -6.29528138E-06 -1.86003163E-04 -3.82216438E-04 -7.78610377E-05  2.60208153E-04
  1.28615613E-06 -3.09036232E-06 -7.62362403E-05 -5.88182241E-04 -7.62362337E-05
 -5.88182356E-04  2.43314010E-05  4.51241910E-04  2.43313307E-05  4.51241451E-04
 -1.37242819E-05  3.26764877E-05 -1.37243547E-05  3.26759089E-05 -1.93215533E-04
  4.77380424E-04  9.76384667E-05 -1.42065903E-09  5.60207151E-06 -1.53510641E-03
  1.18079451E-03  8.73228586E-09 -1.74772379E-04 -7.61327922E-04 -2.84189740E-06
  2.15821848E-04  7.26396019E-11  5.73769884E-05  1.30347564E-09 -3.79199824E-05
 -1.63113161E-04 -2.99707906E-05  3.60944879E-11  6.90174475E-07  1.63851541E-03
  5.45637956E-04  1.56390563E-09 -1.49839922E-05 -8.39737920E-05 -6.73177677E-05
 -9.83028683E-05  1.25895349E-10 -6.82303226E-07  2.21205477E-10  9.95696530E-01
  2.71848699E-02  4.35201963E-04  2.36946974E-10 -8.10469759E-05 -1.42826182E-02
  5.60547695E-03 -1.64920712E-08  7.49889566E-05 -1.15801426E-03 -1.42482141E-03
 -2.27583120E-03 -1.29975596E-09 -4.51880344E-05  3.32136415E-10  7.79007085E-03
 -7.86476487E-05  9.62357495E-06  1.44664605E-04 -2.63402022E-07  6.73931841E-03
 -4.35859514E-04 -3.56768565E-03 -8.42087020E-06 -4.05539499E-04 -3.54406754E-04
 -1.82645312E-04  1.10663052E-04 -3.13070404E-06  6.24815948E-06  7.79005546E-03
 -7.86465603E-05  9.62354633E-06 -1.44663931E-04 -2.63887664E-07  6.73929674E-03
 -4.35868604E-04  3.56767271E-03 -8.41219687E-06 -4.05540013E-04 -3.54406251E-04
 -1.82645078E-04 -1.10663366E-04 -3.13090592E-06 -6.24878548E-06  6.59422184E-05
 -1.18575290E-04 -5.81482312E-05  3.09011749E-05 -2.05681718E-06 -2.03711674E-03
 -4.91075292E-04  7.25161341E-04  2.28393680E-05  9.13274041E-05  3.47278133E-05
 -3.10692806E-05 -3.06898496E-05  1.38641527E-06 -2.72300955E-06  6.59417968E-05
 -1.18575572E-04 -5.81481024E-05 -3.09014315E-05 -2.05697213E-06 -2.03711567E-03
 -4.91076017E-04 -7.25154540E-04  2.28441752E-05  9.13276805E-05  3.47278593E-05
 -3.10693825E-05  3.06897993E-05  1.38610145E-06  2.72401243E-06  2.33927946E-05
  7.64099456E-04  2.33932327E-05  7.64096462E-04 -1.34889401E-05 -1.00724880E-05
 -1.34884833E-05 -1.00704251E-05  7.43122814E-05 -7.09502826E-05  7.43117890E-05
 -7.09639412E-05 -4.44755597E-08 -1.78468037E-07  2.16063043E-08 -1.63202388E-05
  9.08368854E-09  2.24496913E-06 -9.53865770E-07  1.35824204E-04  3.51984892E-08
 -7.59249747E-08 -6.30151865E-08 -8.31864386E-08 -2.14280340E-05 -4.30098945E-09
  1.44497850E-05 -5.85685925E-07  9.12270073E-07 -1.94390198E-08  8.43459926E-05
  1.82553324E-09 -3.40623475E-06 -2.49116109E-06 -1.22098853E-03  1.99999837E-08
 -4.45891630E-07 -1.05025800E-06  5.48826354E-07 -1.93971376E-04  9.52546622E-09
  1.81047980E-06 -4.83892149E-07 -6.65710842E-07  1.86116650E-08 -1.24934447E-05
 -2.43512575E-09  5.22151060E-06 -4.88246375E-06  3.40880669E-04  8.67122651E-08
  1.73573393E-07  2.30002585E-07 -1.24670005E-07 -9.24428248E-05  1.42852640E-08
 -1.53326043E-06  1.00629802E-02  1.52199373E-04  9.92268874E-05 -9.30111032E-06
 -1.14560397E-06  4.03594760E-03 -2.11809857E-03 -9.29995577E-05  1.55272140E-05
 -3.24556902E-04 -2.32753089E-04 -9.22251794E-05  5.71747683E-05  2.27807242E-06
 -1.04953837E-07 -1.00322109E-02 -1.50918839E-04 -9.87364458E-05 -9.28744981E-06
  1.14655864E-06 -4.03865228E-03  2.11813912E-03 -1.00628995E-04 -1.56313394E-05
  3.23323388E-04  2.32017608E-04  9.21481533E-05  5.70338052E-05 -2.26780748E-06
 -1.21344554E-07  7.05121744E-01  1.94313161E-02  2.23674574E-05 -3.70663221E-04
  2.58958245E-06 -8.20458622E-03 -2.66433764E-03  5.06783984E-04  2.13071679E-05
 -1.05243747E-03 -1.19186937E-03 -1.64117101E-03  1.81105196E-04 -5.21477865E-06
 -2.39160516E-06 -7.02904447E-01 -1.93719042E-02 -2.26202808E-05 -3.69438129E-04
 -2.57211766E-06  8.19103266E-03  2.66517230E-03  5.13542615E-04 -2.13143339E-05
  1.04945492E-03  1.18894820E-03  1.63556838E-03  1.80320980E-04  5.19114992E-06
 -2.38855887E-06 -6.47777776E-05  5.28189355E-05  6.42520871E-05 -5.53993674E-05
 -2.11843930E-04  6.81401311E-04  2.11811456E-04 -6.75215589E-04  3.90679523E-05
 -3.23603902E-05 -3.91613576E-05  3.27436648E-05 -2.83414273E-05 -1.13655761E-04
  1.36896671E-05  2.59827989E-08  5.96906846E-06  1.42867472E-03 -6.06715790E-04
 -2.15998761E-07  2.18549178E-05 -4.82882563E-05 -4.04436699E-05 -5.29275906E-05
  3.37398126E-08 -2.54032419E-06 -2.30292161E-08 -3.71809202E-04  5.79382570E-04
 -1.23523427E-05 -1.32806244E-07  1.14756226E-06 -2.16326884E-03 -1.58213398E-03
  1.92218091E-06  9.40100398E-06 -2.83144950E-04 -6.67006079E-04  3.48528587E-04
  3.05666057E-07  5.47754016E-06 -3.45837232E-10 -3.06957519E-04 -4.22693390E-04
  1.18825560E-05  1.95452797E-08 -1.88556517E-06  3.31525302E-03 -3.10296894E-03
 -5.29184221E-07  5.58699224E-05  1.10137077E-04  1.46029956E-04 -7.91385329E-05
  1.45518990E-07  8.87648853E-06  2.35422328E-09  9.75150057E-03  4.06269549E-04