
    -----------------------------------------------------------------------
          Psi4: An Open-Source Ab Initio Electronic Structure Package
                               Psi4 1.3.2 release

                         Git: Rev {HEAD} ecbda83 


    R. M. Parrish, L. A. Burns, D. G. A. Smith, A. C. Simmonett,
    A. E. DePrince III, E. G. Hohenstein, U. Bozkaya, A. Yu. Sokolov,
    R. Di Remigio, R. M. Richard, J. F. Gonthier, A. M. James,
    H. R. McAlexander, A. Kumar, M. Saitow, X. Wang, B. P. Pritchard,
    P. Verma, H. F. Schaefer III, K. Patkowski, R. A. King, E. F. Valeev,
    F. A. Evangelista, J. M. Turney, T. D. Crawford, and C. D. Sherrill,
    J. Chem. Theory Comput. 13(7) pp 3185--3197 (2017).
    (doi: 10.1021/acs.jctc.7b00174)


                         Additional Contributions by
    P. Kraus, H. Kruse, M. H. Lechner, M. C. Schieber, R. A. Shaw,
    A. Alenaizan, R. Galvelis, Z. L. Glick, S. Lehtola, and J. P. Misiewicz

    -----------------------------------------------------------------------


    Psi4 started on: Wednesday, 11 November 2020 12:22PM

    Process ID: 5437
    Host:       node37.bme.utexas.edu
    PSIDATADIR: /home/xy3866/psi4conda/share/psi4
    Memory:     500.0 MiB
    Threads:    8
    
  ==> Input File <==

--------------------------------------------------------------------------
#psi4
#
memory 32 gb

molecule  {
0 1
  O        2.9378530    -0.0680150     0.1840270
  C       -1.9436970     0.3335570     0.3437070
  C       -2.8302210    -0.7631530    -0.2519080
  C       -0.5859380     0.3423530    -0.2788660
  C        0.5697440     0.1186190     0.3690800
  C        1.8486100     0.1294800    -0.3471130
  H       -1.8508390     0.1975730     1.4263050
  H       -2.4196650     1.3090330     0.1828770
  H       -2.9395310    -0.6342920    -1.3325490
  H       -3.8284810    -0.7404210     0.1934590
  H       -2.3959700    -1.7495570    -0.0705440
  H       -0.5478170     0.5276110    -1.3553930
  H        0.6030990    -0.0751360     1.4392450
  H        1.7591054     0.1332756    -1.4732486
units angstrom
no_reorient  #important for SAPT in psi4, default
symmetry c1  #important for SAPT in psi4, default
}

set PROPERTIES_ORIGIN ["COM"]
properties('MP2/aug-cc-pvtz', properties = ['dipole'])
--------------------------------------------------------------------------

  Memory set to  29.802 GiB by Python driver.
    SCF Algorithm Type (re)set to DF.

*** tstart() called on node37.bme.utexas.edu
*** at Wed Nov 11 12:22:57 2020

   => Loading Basis Set <=

    Name: AUG-CC-PVTZ
    Role: ORBITAL
    Keyword: BASIS
    atoms 1    entry O          line   327 file /home/xy3866/psi4conda/share/psi4/basis/aug-cc-pvtz.gbs 
    atoms 2-6  entry C          line   235 file /home/xy3866/psi4conda/share/psi4/basis/aug-cc-pvtz.gbs 
    atoms 7-14 entry H          line    36 file /home/xy3866/psi4conda/share/psi4/basis/aug-cc-pvtz.gbs 


         ---------------------------------------------------------
                                   SCF
               by Justin Turney, Rob Parrish, Andy Simmonett
                          and Daniel G. A. Smith
                              RHF Reference
                        8 Threads,  30517 MiB Core
         ---------------------------------------------------------

  ==> Geometry <==

    Molecular point group: c1
    Full point group: C1

    Geometry (in Angstrom), charge = 0, multiplicity = 1:

       Center              X                  Y                   Z               Mass       
    ------------   -----------------  -----------------  -----------------  -----------------
         O            2.938071211855    -0.065664106403     0.184446927291    15.994914619570
         C           -1.943478788145     0.335907893597     0.344126927291    12.000000000000
         C           -2.830002788145    -0.760802106403    -0.251488072709    12.000000000000
         C           -0.585719788145     0.344703893597    -0.278446072709    12.000000000000
         C            0.569962211855     0.120969893597     0.369499927291    12.000000000000
         C            1.848828211855     0.131830893597    -0.346693072709    12.000000000000
         H           -1.850620788145     0.199923893597     1.426724927291     1.007825032230
         H           -2.419446788145     1.311383893597     0.183296927291     1.007825032230
         H           -2.939312788145    -0.631941106403    -1.332129072709     1.007825032230
         H           -3.828262788145    -0.738070106403     0.193878927291     1.007825032230
         H           -2.395751788145    -1.747206106403    -0.070124072709     1.007825032230
         H           -0.547598788145     0.529961893597    -1.354973072709     1.007825032230
         H            0.603317211855    -0.072785106403     1.439664927291     1.007825032230
         H            1.759323611855     0.135626493597    -1.472828672709     1.007825032230

  Running in c1 symmetry.

  Rotational constants: A =      0.53209  B =      0.04371  C =      0.04315 [cm^-1]
  Rotational constants: A =  15951.66943  B =   1310.35616  C =   1293.70312 [MHz]
  Nuclear repulsion =  210.019178643594387

  Charge       = 0
  Multiplicity = 1
  Electrons    = 46
  Nalpha       = 23
  Nbeta        = 23

  ==> Algorithm <==

  SCF Algorithm Type is DF.
  DIIS enabled.
  MOM disabled.
  Fractional occupation disabled.
  Guess Type is SAD.
  Energy threshold   = 1.00e-10
  Density threshold  = 1.00e-10
  Integral threshold = 0.00e+00

  ==> Primary Basis <==

  Basis Set: AUG-CC-PVTZ
    Blend: AUG-CC-PVTZ
    Number of shells: 156
    Number of basis function: 460
    Number of Cartesian functions: 530
    Spherical Harmonics?: true
    Max angular momentum: 3

   => Loading Basis Set <=

    Name: (AUG-CC-PVTZ AUX)
    Role: JKFIT
    Keyword: DF_BASIS_SCF
    atoms 1    entry O          line   286 file /home/xy3866/psi4conda/share/psi4/basis/aug-cc-pvtz-jkfit.gbs 
    atoms 2-6  entry C          line   162 file /home/xy3866/psi4conda/share/psi4/basis/aug-cc-pvtz-jkfit.gbs 
    atoms 7-14 entry H          line    70 file /home/xy3866/psi4conda/share/psi4/basis/aug-cc-pvtz-jkfit.gbs 

  ==> Pre-Iterations <==

   -------------------------------------------------------
    Irrep   Nso     Nmo     Nalpha   Nbeta   Ndocc  Nsocc
   -------------------------------------------------------
     A        460     460       0       0       0       0
   -------------------------------------------------------
    Total     460     460      23      23      23       0
   -------------------------------------------------------

  ==> Integral Setup <==

  DFHelper Memory: AOs need 1.550 GiB; user supplied 22.352 GiB. Using in-core AOs.

  ==> MemDFJK: Density-Fitted J/K Matrices <==

    J tasked:                   Yes
    K tasked:                   Yes
    wK tasked:                   No
    OpenMP threads:               8
    Memory [MiB]:             22888
    Algorithm:                 Core
    Schwarz Cutoff:           1E-12
    Mask sparsity (%):       4.9017
    Fitting Condition:        1E-10

   => Auxiliary Basis Set <=

  Basis Set: (AUG-CC-PVTZ AUX)
    Blend: AUG-CC-PVTZ-JKFIT
    Number of shells: 292
    Number of basis function: 992
    Number of Cartesian functions: 1226
    Spherical Harmonics?: true
    Max angular momentum: 4

  Minimum eigenvalue in the overlap matrix is 3.8683742203E-06.
  Using Symmetric Orthogonalization.

  SCF Guess: Superposition of Atomic Densities via on-the-fly atomic UHF.

  ==> Iterations <==

                           Total Energy        Delta E     RMS |[F,P]|

   @DF-RHF iter SAD:  -267.85007870521974   -2.67850e+02   0.00000e+00 
   @DF-RHF iter   1:  -268.72081164020165   -8.70733e-01   1.33969e-03 DIIS
   @DF-RHF iter   2:  -268.88253947414870   -1.61728e-01   7.69483e-04 DIIS
   @DF-RHF iter   3:  -268.92915334121352   -4.66139e-02   1.73762e-04 DIIS
   @DF-RHF iter   4:  -268.93279584640413   -3.64251e-03   6.99493e-05 DIIS
   @DF-RHF iter   5:  -268.93346875545205   -6.72909e-04   1.13186e-05 DIIS
   @DF-RHF iter   6:  -268.93350942667098   -4.06712e-05   5.41814e-06 DIIS
   @DF-RHF iter   7:  -268.93351699193153   -7.56526e-06   2.39336e-06 DIIS
   @DF-RHF iter   8:  -268.93351906630846   -2.07438e-06   1.14961e-06 DIIS
   @DF-RHF iter   9:  -268.93351945052854   -3.84220e-07   2.89927e-07 DIIS
   @DF-RHF iter  10:  -268.93351948357906   -3.30505e-08   9.04131e-08 DIIS
   @DF-RHF iter  11:  -268.93351948597444   -2.39538e-09   2.21930e-08 DIIS
   @DF-RHF iter  12:  -268.93351948611917   -1.44723e-10   6.67272e-09 DIIS
   @DF-RHF iter  13:  -268.93351948613508   -1.59162e-11   2.75865e-09 DIIS
   @DF-RHF iter  14:  -268.93351948613724   -2.16005e-12   1.51220e-09 DIIS
   @DF-RHF iter  15:  -268.93351948613895   -1.70530e-12   7.54679e-10 DIIS
   @DF-RHF iter  16:  -268.93351948613872    2.27374e-13   2.24331e-10 DIIS
   @DF-RHF iter  17:  -268.93351948613929   -5.68434e-13   6.26100e-11 DIIS
  Energy and wave function converged.


  ==> Post-Iterations <==

    Orbital Energies [Eh]
    ---------------------

    Doubly Occupied:                                                      

       1A    -20.549902     2A    -11.333574     3A    -11.274369  
       4A    -11.250502     5A    -11.245450     6A    -11.235659  
       7A     -1.373697     8A     -1.116858     9A     -1.032110  
      10A     -0.905591    11A     -0.816445    12A     -0.779648  
      13A     -0.678268    14A     -0.649506    15A     -0.616237  
      16A     -0.606659    17A     -0.558605    18A     -0.546603  
      19A     -0.527108    20A     -0.516529    21A     -0.506885  
      22A     -0.423187    23A     -0.380924  

    Virtual:                                                              

      24A      0.023781    25A      0.030856    26A      0.035836  
      27A      0.039657    28A      0.051852    29A      0.057300  
      30A      0.059115    31A      0.067599    32A      0.079702  
      33A      0.089781    34A      0.093976    35A      0.107060  
      36A      0.110831    37A      0.115801    38A      0.120517  
      39A      0.123502    40A      0.127117    41A      0.133351  
      42A      0.138547    43A      0.146263    44A      0.147014  
      45A      0.157852    46A      0.161649    47A      0.166379  
      48A      0.170763    49A      0.188999    50A      0.205576  
      51A      0.210811    52A      0.226806    53A      0.230079  
      54A      0.232729    55A      0.239297    56A      0.247553  
      57A      0.255821    58A      0.264703    59A      0.275395  
      60A      0.278800    61A      0.285398    62A      0.293367  
      63A      0.296571    64A      0.307376    65A      0.313399  
      66A      0.318412    67A      0.331164    68A      0.333113  
      69A      0.341469    70A      0.347811    71A      0.353577  
      72A      0.361952    73A      0.365573    74A      0.367954  
      75A      0.374622    76A      0.381620    77A      0.384176  
      78A      0.391185    79A      0.400414    80A      0.400597  
      81A      0.413843    82A      0.422537    83A      0.423011  
      84A      0.434472    85A      0.437750    86A      0.440196  
      87A      0.444905    88A      0.457354    89A      0.460423  
      90A      0.462393    91A      0.472406    92A      0.476405  
      93A      0.487053    94A      0.488823    95A      0.497494  
      96A      0.499992    97A      0.509771    98A      0.514577  
      99A      0.521813   100A      0.535444   101A      0.542278  
     102A      0.551031   103A      0.556387   104A      0.558877  
     105A      0.569494   106A      0.576980   107A      0.580801  
     108A      0.584546   109A      0.604775   110A      0.619538  
     111A      0.627293   112A      0.631551   113A      0.651138  
     114A      0.664713   115A      0.668996   116A      0.680258  
     117A      0.689575   118A      0.706393   119A      0.735525  
     120A      0.737930   121A      0.745267   122A      0.759412  
     123A      0.781641   124A      0.783257   125A      0.798426  
     126A      0.812270   127A      0.818253   128A      0.825878  
     129A      0.838499   130A      0.840270   131A      0.852930  
     132A      0.856577   133A      0.865648   134A      0.876880  
     135A      0.883536   136A      0.887400   137A      0.889075  
     138A      0.900668   139A      0.904807   140A      0.908809  
     141A      0.921342   142A      0.925187   143A      0.933103  
     144A      0.942872   145A      0.949256   146A      0.954688  
     147A      0.962190   148A      0.970770   149A      0.978638  
     150A      0.986377   151A      0.990061   152A      1.002218  
     153A      1.008118   154A      1.014954   155A      1.021611  
     156A      1.026094   157A      1.036810   158A      1.040355  
     159A      1.044188   160A      1.060010   161A      1.061468  
     162A      1.068320   163A      1.078414   164A      1.098076  
     165A      1.104244   166A      1.105089   167A      1.123485  
     168A      1.140477   169A      1.143993   170A      1.155811  
     171A      1.160684   172A      1.169763   173A      1.173185  
     174A      1.190402   175A      1.197535   176A      1.203012  
     177A      1.218262   178A      1.225641   179A      1.233294  
     180A      1.241449   181A      1.253592   182A      1.258901  
     183A      1.264188   184A      1.270310   185A      1.277167  
     186A      1.281301   187A      1.297540   188A      1.314308  
     189A      1.339183   190A      1.363137   191A      1.375228  
     192A      1.383146   193A      1.393916   194A      1.410774  
     195A      1.415739   196A      1.437050   197A      1.447699  
     198A      1.455168   199A      1.462937   200A      1.472389  
     201A      1.492577   202A      1.506093   203A      1.511714  
     204A      1.522770   205A      1.531849   206A      1.562089  
     207A      1.572137   208A      1.575488   209A      1.599555  
     210A      1.607604   211A      1.630783   212A      1.636854  
     213A      1.655531   214A      1.661345   215A      1.667711  
     216A      1.686689   217A      1.698195   218A      1.710042  
     219A      1.719220   220A      1.726083   221A      1.737821  
     222A      1.744800   223A      1.749222   224A      1.758522  
     225A      1.761571   226A      1.784809   227A      1.801575  
     228A      1.820708   229A      1.822423   230A      1.831448  
     231A      1.843593   232A      1.846665   233A      1.860326  
     234A      1.880339   235A      1.905632   236A      1.906557  
     237A      1.914141   238A      1.931265   239A      1.948035  
     240A      1.966079   241A      1.969781   242A      1.995299  
     243A      1.998843   244A      2.009505   245A      2.033899  
     246A      2.039193   247A      2.053469   248A      2.065634  
     249A      2.085688   250A      2.119264   251A      2.130909  
     252A      2.138302   253A      2.159649   254A      2.175071  
     255A      2.192826   256A      2.203174   257A      2.225471  
     258A      2.236187   259A      2.246098   260A      2.263055  
     261A      2.268157   262A      2.288554   263A      2.294377  
     264A      2.322675   265A      2.340140   266A      2.360845  
     267A      2.370800   268A      2.396837   269A      2.403032  
     270A      2.425508   271A      2.432776   272A      2.458512  
     273A      2.477542   274A      2.509081   275A      2.525996  
     276A      2.552991   277A      2.580997   278A      2.625230  
     279A      2.652880   280A      2.686201   281A      2.686683  
     282A      2.729877   283A      2.784802   284A      2.808984  
     285A      2.838325   286A      2.867771   287A      2.912609  
     288A      2.945220   289A      3.025440   290A      3.049625  
     291A      3.106814   292A      3.142813   293A      3.170931  
     294A      3.202644   295A      3.227315   296A      3.264302  
     297A      3.295947   298A      3.318049   299A      3.325046  
     300A      3.358605   301A      3.378465   302A      3.392305  
     303A      3.406868   304A      3.437058   305A      3.462337  
     306A      3.476597   307A      3.495744   308A      3.506855  
     309A      3.527245   310A      3.537551   311A      3.545993  
     312A      3.553921   313A      3.567670   314A      3.592146  
     315A      3.601903   316A      3.628364   317A      3.634394  
     318A      3.640856   319A      3.666930   320A      3.678997  
     321A      3.707648   322A      3.723951   323A      3.729140  
     324A      3.745783   325A      3.754271   326A      3.768055  
     327A      3.791760   328A      3.802245   329A      3.820088  
     330A      3.831829   331A      3.861142   332A      3.872870  
     333A      3.888893   334A      3.931352   335A      3.937031  
     336A      3.945957   337A      3.951050   338A      3.960641  
     339A      3.977166   340A      3.988347   341A      3.999499  
     342A      4.015288   343A      4.026186   344A      4.039305  
     345A      4.054385   346A      4.076984   347A      4.092007  
     348A      4.133340   349A      4.156274   350A      4.167417  
     351A      4.176534   352A      4.190060   353A      4.201051  
     354A      4.215337   355A      4.242817   356A      4.275477  
     357A      4.289863   358A      4.294470   359A      4.306118  
     360A      4.339403   361A      4.350993   362A      4.379279  
     363A      4.408183   364A      4.421426   365A      4.437325  
     366A      4.461295   367A      4.476572   368A      4.506436  
     369A      4.536225   370A      4.549283   371A      4.572683  
     372A      4.581432   373A      4.650705   374A      4.674840  
     375A      4.699887   376A      4.726774   377A      4.738521  
     378A      4.750691   379A      4.761992   380A      4.797090  
     381A      4.819221   382A      4.833535   383A      4.849531  
     384A      4.858094   385A      4.897872   386A      4.912533  
     387A      4.914181   388A      4.940850   389A      4.955568  
     390A      4.962814   391A      4.988086   392A      5.007776  
     393A      5.019094   394A      5.044363   395A      5.090736  
     396A      5.109475   397A      5.121904   398A      5.131730  
     399A      5.151275   400A      5.177748   401A      5.202021  
     402A      5.205954   403A      5.234918   404A      5.253975  
     405A      5.295256   406A      5.319314   407A      5.345576  
     408A      5.348597   409A      5.373385   410A      5.391377  
     411A      5.410465   412A      5.453014   413A      5.465182  
     414A      5.488011   415A      5.509987   416A      5.567242  
     417A      5.626627   418A      5.627691   419A      5.635606  
     420A      5.680163   421A      5.766092   422A      5.792063  
     423A      5.827815   424A      5.899731   425A      5.914195  
     426A      5.960072   427A      5.996686   428A      6.082199  
     429A      6.160876   430A      6.163117   431A      6.203297  
     432A      6.260975   433A      6.325764   434A      6.440248  
     435A      6.461444   436A      6.483443   437A      6.562168  
     438A      6.654712   439A      6.670408   440A      6.697657  
     441A      6.734425   442A      6.756206   443A      6.819689  
     444A      6.903004   445A      6.961758   446A      7.033949  
     447A      7.150249   448A      7.319794   449A      7.348408  
     450A      7.595625   451A      7.659542   452A      7.675228  
     453A      7.828048   454A      7.887669   455A     15.386306  
     456A     16.618560   457A     17.245830   458A     17.872916  
     459A     18.550147   460A     19.795547  

    Final Occupation by Irrep:
              A 
    DOCC [    23 ]

  @DF-RHF Final Energy:  -268.93351948613929

   => Energetics <=

    Nuclear Repulsion Energy =            210.0191786435943868
    One-Electron Energy =                -780.0567640133965597
    Two-Electron Energy =                 301.1040658836628836
    Total Energy =                       -268.9335194861392893

Computation Completed

*** tstop() called on node37.bme.utexas.edu at Wed Nov 11 12:23:10 2020
Module time:
	user time   =      80.43 seconds =       1.34 minutes
	system time =       8.35 seconds =       0.14 minutes
	total time  =         13 seconds =       0.22 minutes
Total time:
	user time   =      80.43 seconds =       1.34 minutes
	system time =       8.35 seconds =       0.14 minutes
	total time  =         13 seconds =       0.22 minutes
   => Loading Basis Set <=

    Name: (AUG-CC-PVTZ AUX)
    Role: RIFIT
    Keyword: DF_BASIS_MP2
    atoms 1    entry O          line   264 file /home/xy3866/psi4conda/share/psi4/basis/aug-cc-pvtz-ri.gbs 
    atoms 2-6  entry C          line   148 file /home/xy3866/psi4conda/share/psi4/basis/aug-cc-pvtz-ri.gbs 
    atoms 7-14 entry H          line    30 file /home/xy3866/psi4conda/share/psi4/basis/aug-cc-pvtz-ri.gbs 


*** tstart() called on node37.bme.utexas.edu
*** at Wed Nov 11 12:23:10 2020


  //>>>>>>>>>>>>>>>>>>>>>>>>>>>>>>>>>>>//
  //               DFMP2               //
  //<<<<<<<<<<<<<<<<<<<<<<<<<<<<<<<<<<<//

	 --------------------------------------------------------
	                          DF-MP2                         
	      2nd-Order Density-Fitted Moller-Plesset Theory     
	              RMP2 Wavefunction,   8 Threads             
	                                                         
	        Rob Parrish, Justin Turney, Andy Simmonett,      
	           Ed Hohenstein, and C. David Sherrill          
	 --------------------------------------------------------

   => Auxiliary Basis Set <=

  Basis Set: (AUG-CC-PVTZ AUX)
    Blend: AUG-CC-PVTZ-RI
    Number of shells: 280
    Number of basis function: 1004
    Number of Cartesian functions: 1256
    Spherical Harmonics?: true
    Max angular momentum: 4

	 --------------------------------------------------------
	                 NBF =   460, NAUX =  1004
	 --------------------------------------------------------
	   CLASS    FOCC     OCC    AOCC    AVIR     VIR    FVIR
	   PAIRS       0      23      23     437     437       0
	 --------------------------------------------------------

  DFHelper Memory: AOs need 1.550 GiB; user supplied 22.352 GiB. Using in-core AOs.


         ------------------------------------------------------------
                                     CPHF                           
                                  Rob Parrish                       
         ------------------------------------------------------------

  ==> Geometry <==

    Molecular point group: c1
    Full point group: C1

    Geometry (in Angstrom), charge = 0, multiplicity = 1:

       Center              X                  Y                   Z               Mass       
    ------------   -----------------  -----------------  -----------------  -----------------
         O            2.938071211855    -0.065664106403     0.184446927291    15.994914619570
         C           -1.943478788145     0.335907893597     0.344126927291    12.000000000000
         C           -2.830002788145    -0.760802106403    -0.251488072709    12.000000000000
         C           -0.585719788145     0.344703893597    -0.278446072709    12.000000000000
         C            0.569962211855     0.120969893597     0.369499927291    12.000000000000
         C            1.848828211855     0.131830893597    -0.346693072709    12.000000000000
         H           -1.850620788145     0.199923893597     1.426724927291     1.007825032230
         H           -2.419446788145     1.311383893597     0.183296927291     1.007825032230
         H           -2.939312788145    -0.631941106403    -1.332129072709     1.007825032230
         H           -3.828262788145    -0.738070106403     0.193878927291     1.007825032230
         H           -2.395751788145    -1.747206106403    -0.070124072709     1.007825032230
         H           -0.547598788145     0.529961893597    -1.354973072709     1.007825032230
         H            0.603317211855    -0.072785106403     1.439664927291     1.007825032230
         H            1.759323611855     0.135626493597    -1.472828672709     1.007825032230

  Nuclear repulsion =  210.019178643594387
  Reference energy  = -268.933519486139289

  ==> Basis Set <==

  Basis Set: AUG-CC-PVTZ
    Blend: AUG-CC-PVTZ
    Number of shells: 156
    Number of basis function: 460
    Number of Cartesian functions: 530
    Spherical Harmonics?: true
    Max angular momentum: 3

  ==> CGRSolver (by Rob Parrish) <==

   Number of roots    =         1
   Preconditioning    =    JACOBI
   Convergence cutoff =     1E-06
   Maximum iterations =       100

  ==> CPHFRHamiltonian (by Rob Parrish) <== 

  ==> MemDFJK: Density-Fitted J/K Matrices <==

    J tasked:                   Yes
    K tasked:                   Yes
    wK tasked:                   No
    OpenMP threads:               8
    Memory [MiB]:             22888
    Algorithm:                 Core
    Schwarz Cutoff:           1E-12
    Mask sparsity (%):       4.9017
    Fitting Condition:        1E-10

   => Auxiliary Basis Set <=

  Basis Set: (AUG-CC-PVTZ AUX)
    Blend: AUG-CC-PVTZ-JKFIT
    Number of shells: 292
    Number of basis function: 992
    Number of Cartesian functions: 1226
    Spherical Harmonics?: true
    Max angular momentum: 4

  ==> CPHF Iterations <==

  => Iterations <=

             Iter  Converged  Remaining    Residual
  CGR           1          0          1   1.126E-01
  CGR           2          0          1   3.545E-02
  CGR           3          0          1   1.191E-02
  CGR           4          0          1   4.558E-03
  CGR           5          0          1   2.076E-03
  CGR           6          0          1   7.564E-04
  CGR           7          0          1   2.143E-04
  CGR           8          0          1   7.285E-05
  CGR           9          0          1   2.356E-05
  CGR          10          0          1   1.250E-05
  CGR          11          0          1   5.438E-06
  CGR          12          0          1   1.812E-06
  CGR          13          1          0   5.246E-07

    CGRSolver converged.

	-----------------------------------------------------------
	 ==================> DF-MP2 Energies <==================== 
	-----------------------------------------------------------
	 Reference Energy          =    -268.9335194861392893 [Eh]
	 Singles Energy            =      -0.0000000000000000 [Eh]
	 Same-Spin Energy          =      -0.2695706665851491 [Eh]
	 Opposite-Spin Energy      =      -0.9142306970894984 [Eh]
	 Correlation Energy        =      -1.1838013636746476 [Eh]
	 Total Energy              =    -270.1173208498139502 [Eh]
	-----------------------------------------------------------
	 ================> DF-SCS-MP2 Energies <================== 
	-----------------------------------------------------------
	 SCS Same-Spin Scale       =       0.3333333333333333 [-]
	 SCS Opposite-Spin Scale   =       1.2000000000000000 [-]
	 SCS Same-Spin Energy      =      -0.0898568888617163 [Eh]
	 SCS Opposite-Spin Energy  =      -1.0970768365073982 [Eh]
	 SCS Correlation Energy    =      -1.1869337253691146 [Eh]
	 SCS Total Energy          =    -270.1204532115083907 [Eh]
	-----------------------------------------------------------



Properties will be evaluated at  -0.000000,   0.000000,   0.000000 [a0]

Properties computed using the MP2 density matrix

  Nuclear Dipole Moment: [e a0]
     X:   -10.8777      Y:    -0.9501      Z:    -0.9239

  Electronic Dipole Moment: [e a0]
     X:     9.3254      Y:     1.0795      Z:     0.6285

  Dipole Moment: [e a0]
     X:    -1.5523      Y:     0.1295      Z:    -0.2955     Total:     1.5855

  Dipole Moment: [D]
     X:    -3.9456      Y:     0.3291      Z:    -0.7510     Total:     4.0299


*** tstop() called on node37.bme.utexas.edu at Wed Nov 11 12:23:55 2020
Module time:
	user time   =     260.21 seconds =       4.34 minutes
	system time =      26.48 seconds =       0.44 minutes
	total time  =         45 seconds =       0.75 minutes
Total time:
	user time   =     340.77 seconds =       5.68 minutes
	system time =      34.83 seconds =       0.58 minutes
	total time  =         58 seconds =       0.97 minutes

    Psi4 stopped on: Wednesday, 11 November 2020 12:23PM
    Psi4 wall time for execution: 0:00:57.99

*** Psi4 exiting successfully. Buy a developer a beer!
