12354337                                                                
Freq      RMP2-FC                                                     6-31G(d)            
Number of atoms                            I               18
Info1-9                                    I   N=           9
          30          28        1002           0           0         100
           6           2           1
Charge                                     I                0
Multiplicity                               I                1
Number of electrons                        I               66
Number of alpha electrons                  I               33
Number of beta electrons                   I               33
Number of basis functions                  I              153
Number of independent functions            I              153
Number of point charges in /Mol/           I                0
Number of translation vectors              I                0
Atomic numbers                             I   N=          18
           8           7           6           6           6           6
           6           6           6           1           1           1
           1           1           1           1           1           1
Nuclear charges                            R   N=          18
  8.00000000E+00  7.00000000E+00  6.00000000E+00  6.00000000E+00  6.00000000E+00
  6.00000000E+00  6.00000000E+00  6.00000000E+00  6.00000000E+00  1.00000000E+00
  1.00000000E+00  1.00000000E+00  1.00000000E+00  1.00000000E+00  1.00000000E+00
  1.00000000E+00  1.00000000E+00  1.00000000E+00
Current cartesian coordinates              R   N=          54
  1.14487618E+00  3.72927271E+00 -4.15897862E-01 -2.76580208E+00  1.99407989E+00
  2.27590836E-01  7.11807559E-01 -7.92122260E-01 -5.45264982E-01  3.48604204E+00
 -1.13446437E+00 -1.01543770E+00 -1.72384405E-01  1.79731003E+00 -2.55416936E-01
 -9.55459279E-01 -2.77185519E+00 -3.25371697E-01  5.05958620E+00 -5.95861482E-01
  1.35481489E+00 -3.56688057E+00 -2.39181769E+00  1.79229430E-01 -4.42550696E+00
  2.63035776E-02  4.50151919E-01  3.82895779E+00 -3.06565558E+00 -1.68131265E+00
  4.06325618E+00  1.63691482E-01 -2.52092829E+00 -2.50399770E-01 -4.69245154E+00
 -5.53971767E-01  7.07338211E+00 -8.67075492E-01  9.72380784E-01  4.51573726E+00
 -1.86597550E+00  2.89256252E+00  4.76647133E+00  1.35268678E+00  1.96397822E+00
 -3.37639810E+00  3.80598107E+00  4.21688361E-01 -4.86424309E+00 -3.96790695E+00
  3.47849085E-01 -6.37838614E+00  5.19009183E-01  8.35571227E-01
Force Field                                I                0
Int Atom Types                             I   N=          18
           0           0           0           0           0           0
           0           0           0           0           0           0
           0           0           0           0           0           0
MM charges                                 R   N=          18
  0.00000000E+00  0.00000000E+00  0.00000000E+00  0.00000000E+00  0.00000000E+00
  0.00000000E+00  0.00000000E+00  0.00000000E+00  0.00000000E+00  0.00000000E+00
  0.00000000E+00  0.00000000E+00  0.00000000E+00  0.00000000E+00  0.00000000E+00
  0.00000000E+00  0.00000000E+00  0.00000000E+00
Integer atomic weights                     I   N=          18
          16          14          12          12          12          12
          12          12          12           1           1           1
           1           1           1           1           1           1
Real atomic weights                        R   N=          18
  1.59949146E+01  1.40030740E+01  1.20000000E+01  1.20000000E+01  1.20000000E+01
  1.20000000E+01  1.20000000E+01  1.20000000E+01  1.20000000E+01  1.00782504E+00
  1.00782504E+00  1.00782504E+00  1.00782504E+00  1.00782504E+00  1.00782504E+00
  1.00782504E+00  1.00782504E+00  1.00782504E+00
Atom fragment info                         I   N=          18
           0           0           0           0           0           0
           0           0           0           0           0           0
           0           0           0           0           0           0
Atom residue num                           I   N=          18
           0           0           0           0           0           0
           0           0           0           0           0           0
           0           0           0           0           0           0
Nuclear spins                              I   N=          18
           0           2           0           0           0           0
           0           0           0           1           1           1
           1           1           1           1           1           1
Nuclear ZEff                               R   N=          18
 -5.60000000E+00 -4.55000000E+00 -3.60000000E+00 -3.60000000E+00 -3.60000000E+00
 -3.60000000E+00 -3.60000000E+00 -3.60000000E+00 -3.60000000E+00 -1.00000000E+00
 -1.00000000E+00 -1.00000000E+00 -1.00000000E+00 -1.00000000E+00 -1.00000000E+00
 -1.00000000E+00 -1.00000000E+00 -1.00000000E+00
Nuclear QMom                               R   N=          18
  0.00000000E+00  2.04400000E+00  0.00000000E+00  0.00000000E+00  0.00000000E+00
  0.00000000E+00  0.00000000E+00  0.00000000E+00  0.00000000E+00  0.00000000E+00
  0.00000000E+00  0.00000000E+00  0.00000000E+00  0.00000000E+00  0.00000000E+00
  0.00000000E+00  0.00000000E+00  0.00000000E+00
Nuclear GFac                               R   N=          18
  0.00000000E+00  4.03761000E-01  0.00000000E+00  0.00000000E+00  0.00000000E+00
  0.00000000E+00  0.00000000E+00  0.00000000E+00  0.00000000E+00  2.79284600E+00
  2.79284600E+00  2.79284600E+00  2.79284600E+00  2.79284600E+00  2.79284600E+00
  2.79284600E+00  2.79284600E+00  2.79284600E+00
MicOpt                                     I   N=          18
          -1          -1          -1          -1          -1          -1
          -1          -1          -1          -1          -1          -1
          -1          -1          -1          -1          -1          -1
Number of contracted shells                I               54
Number of primitive shells                 I              135
Pure/Cartesian d shells                    I                1
Pure/Cartesian f shells                    I                0
Highest angular momentum                   I                2
Largest degree of contraction              I                6
Shell types                                I   N=          54
           0          -1          -1           2           0          -1
          -1           2           0          -1          -1           2
           0          -1          -1           2           0          -1
          -1           2           0          -1          -1           2
           0          -1          -1           2           0          -1
          -1           2           0          -1          -1           2
           0           0           0           0           0           0
           0           0           0           0           0           0
           0           0           0           0           0           0
Number of primitives per shell             I   N=          54
           6           3           1           1           6           3
           1           1           6           3           1           1
           6           3           1           1           6           3
           1           1           6           3           1           1
           6           3           1           1           6           3
           1           1           6           3           1           1
           3           1           3           1           3           1
           3           1           3           1           3           1
           3           1           3           1           3           1
Shell to atom map                          I   N=          54
           1           1           1           1           2           2
           2           2           3           3           3           3
           4           4           4           4           5           5
           5           5           6           6           6           6
           7           7           7           7           8           8
           8           8           9           9           9           9
          10          10          11          11          12          12
          13          13          14          14          15          15
          16          16          17          17          18          18
Primitive exponents                        R   N=         135
  5.48467166E+03  8.25234946E+02  1.88046958E+02  5.29645000E+01  1.68975704E+01
  5.79963534E+00  1.55396162E+01  3.59993359E+00  1.01376175E+00  2.70005823E-01
  8.00000000E-01  4.17351146E+03  6.27457911E+02  1.42902093E+02  4.02343293E+01
  1.28202129E+01  4.39043701E+00  1.16263619E+01  2.71627981E+00  7.72218397E-01
  2.12031498E-01  8.00000000E-01  3.04752488E+03  4.57369518E+02  1.03948685E+02
  2.92101553E+01  9.28666296E+00  3.16392696E+00  7.86827235E+00  1.88128854E+00
  5.44249258E-01  1.68714478E-01  8.00000000E-01  3.04752488E+03  4.57369518E+02
  1.03948685E+02  2.92101553E+01  9.28666296E+00  3.16392696E+00  7.86827235E+00
  1.88128854E+00  5.44249258E-01  1.68714478E-01  8.00000000E-01  3.04752488E+03
  4.57369518E+02  1.03948685E+02  2.92101553E+01  9.28666296E+00  3.16392696E+00
  7.86827235E+00  1.88128854E+00  5.44249258E-01  1.68714478E-01  8.00000000E-01
  3.04752488E+03  4.57369518E+02  1.03948685E+02  2.92101553E+01  9.28666296E+00
  3.16392696E+00  7.86827235E+00  1.88128854E+00  5.44249258E-01  1.68714478E-01
  8.00000000E-01  3.04752488E+03  4.57369518E+02  1.03948685E+02  2.92101553E+01
  9.28666296E+00  3.16392696E+00  7.86827235E+00  1.88128854E+00  5.44249258E-01
  1.68714478E-01  8.00000000E-01  3.04752488E+03  4.57369518E+02  1.03948685E+02
  2.92101553E+01  9.28666296E+00  3.16392696E+00  7.86827235E+00  1.88128854E+00
  5.44249258E-01  1.68714478E-01  8.00000000E-01  3.04752488E+03  4.57369518E+02
  1.03948685E+02  2.92101553E+01  9.28666296E+00  3.16392696E+00  7.86827235E+00
  1.88128854E+00  5.44249258E-01  1.68714478E-01  8.00000000E-01  1.87311370E+01
  2.82539436E+00  6.40121692E-01  1.61277759E-01  1.87311370E+01  2.82539436E+00
  6.40121692E-01  1.61277759E-01  1.87311370E+01  2.82539436E+00  6.40121692E-01
  1.61277759E-01  1.87311370E+01  2.82539436E+00  6.40121692E-01  1.61277759E-01
  1.87311370E+01  2.82539436E+00  6.40121692E-01  1.61277759E-01  1.87311370E+01
  2.82539436E+00  6.40121692E-01  1.61277759E-01  1.87311370E+01  2.82539436E+00
  6.40121692E-01  1.61277759E-01  1.87311370E+01  2.82539436E+00  6.40121692E-01
  1.61277759E-01  1.87311370E+01  2.82539436E+00  6.40121692E-01  1.61277759E-01
Contraction coefficients                   R   N=         135
  1.83107443E-03  1.39501722E-02  6.84450781E-02  2.32714336E-01  4.70192898E-01
  3.58520853E-01 -1.10777550E-01 -1.48026263E-01  1.13076702E+00  1.00000000E+00
  1.00000000E+00  1.83477216E-03  1.39946270E-02  6.85865518E-02  2.32240873E-01
  4.69069948E-01  3.60455199E-01 -1.14961182E-01 -1.69117479E-01  1.14585195E+00
  1.00000000E+00  1.00000000E+00  1.83473713E-03  1.40373228E-02  6.88426223E-02
  2.32184443E-01  4.67941348E-01  3.62311985E-01 -1.19332420E-01 -1.60854152E-01
  1.14345644E+00  1.00000000E+00  1.00000000E+00  1.83473713E-03  1.40373228E-02
  6.88426223E-02  2.32184443E-01  4.67941348E-01  3.62311985E-01 -1.19332420E-01
 -1.60854152E-01  1.14345644E+00  1.00000000E+00  1.00000000E+00  1.83473713E-03
  1.40373228E-02  6.88426223E-02  2.32184443E-01  4.67941348E-01  3.62311985E-01
 -1.19332420E-01 -1.60854152E-01  1.14345644E+00  1.00000000E+00  1.00000000E+00
  1.83473713E-03  1.40373228E-02  6.88426223E-02  2.32184443E-01  4.67941348E-01
  3.62311985E-01 -1.19332420E-01 -1.60854152E-01  1.14345644E+00  1.00000000E+00
  1.00000000E+00  1.83473713E-03  1.40373228E-02  6.88426223E-02  2.32184443E-01
  4.67941348E-01  3.62311985E-01 -1.19332420E-01 -1.60854152E-01  1.14345644E+00
  1.00000000E+00  1.00000000E+00  1.83473713E-03  1.40373228E-02  6.88426223E-02
  2.32184443E-01  4.67941348E-01  3.62311985E-01 -1.19332420E-01 -1.60854152E-01
  1.14345644E+00  1.00000000E+00  1.00000000E+00  1.83473713E-03  1.40373228E-02
  6.88426223E-02  2.32184443E-01  4.67941348E-01  3.62311985E-01 -1.19332420E-01
 -1.60854152E-01  1.14345644E+00  1.00000000E+00  1.00000000E+00  3.34946043E-02
  2.34726953E-01  8.13757326E-01  1.00000000E+00  3.34946043E-02  2.34726953E-01
  8.13757326E-01  1.00000000E+00  3.34946043E-02  2.34726953E-01  8.13757326E-01
  1.00000000E+00  3.34946043E-02  2.34726953E-01  8.13757326E-01  1.00000000E+00
  3.34946043E-02  2.34726953E-01  8.13757326E-01  1.00000000E+00  3.34946043E-02
  2.34726953E-01  8.13757326E-01  1.00000000E+00  3.34946043E-02  2.34726953E-01
  8.13757326E-01  1.00000000E+00  3.34946043E-02  2.34726953E-01  8.13757326E-01
  1.00000000E+00  3.34946043E-02  2.34726953E-01  8.13757326E-01  1.00000000E+00
P(S=P) Contraction coefficients            R   N=         135
  0.00000000E+00  0.00000000E+00  0.00000000E+00  0.00000000E+00  0.00000000E+00
  0.00000000E+00  7.08742682E-02  3.39752839E-01  7.27158577E-01  1.00000000E+00
  0.00000000E+00  0.00000000E+00  0.00000000E+00  0.00000000E+00  0.00000000E+00
  0.00000000E+00  0.00000000E+00  6.75797439E-02  3.23907296E-01  7.40895140E-01
  1.00000000E+00  0.00000000E+00  0.00000000E+00  0.00000000E+00  0.00000000E+00
  0.00000000E+00  0.00000000E+00  0.00000000E+00  6.89990666E-02  3.16423961E-01
  7.44308291E-01  1.00000000E+00  0.00000000E+00  0.00000000E+00  0.00000000E+00
  0.00000000E+00  0.00000000E+00  0.00000000E+00  0.00000000E+00  6.89990666E-02
  3.16423961E-01  7.44308291E-01  1.00000000E+00  0.00000000E+00  0.00000000E+00
  0.00000000E+00  0.00000000E+00  0.00000000E+00  0.00000000E+00  0.00000000E+00
  6.89990666E-02  3.16423961E-01  7.44308291E-01  1.00000000E+00  0.00000000E+00
  0.00000000E+00  0.00000000E+00  0.00000000E+00  0.00000000E+00  0.00000000E+00
  0.00000000E+00  6.89990666E-02  3.16423961E-01  7.44308291E-01  1.00000000E+00
  0.00000000E+00  0.00000000E+00  0.00000000E+00  0.00000000E+00  0.00000000E+00
  0.00000000E+00  0.00000000E+00  6.89990666E-02  3.16423961E-01  7.44308291E-01
  1.00000000E+00  0.00000000E+00  0.00000000E+00  0.00000000E+00  0.00000000E+00
  0.00000000E+00  0.00000000E+00  0.00000000E+00  6.89990666E-02  3.16423961E-01
  7.44308291E-01  1.00000000E+00  0.00000000E+00  0.00000000E+00  0.00000000E+00
  0.00000000E+00  0.00000000E+00  0.00000000E+00  0.00000000E+00  6.89990666E-02
  3.16423961E-01  7.44308291E-01  1.00000000E+00  0.00000000E+00  0.00000000E+00
  0.00000000E+00  0.00000000E+00  0.00000000E+00  0.00000000E+00  0.00000000E+00
  0.00000000E+00  0.00000000E+00  0.00000000E+00  0.00000000E+00  0.00000000E+00
  0.00000000E+00  0.00000000E+00  0.00000000E+00  0.00000000E+00  0.00000000E+00
  0.00000000E+00  0.00000000E+00  0.00000000E+00  0.00000000E+00  0.00000000E+00
  0.00000000E+00  0.00000000E+00  0.00000000E+00  0.00000000E+00  0.00000000E+00
  0.00000000E+00  0.00000000E+00  0.00000000E+00  0.00000000E+00  0.00000000E+00
  0.00000000E+00  0.00000000E+00  0.00000000E+00  0.00000000E+00  0.00000000E+00
Coordinates of each shell                  R   N=         162
  1.14487618E+00  3.72927271E+00 -4.15897862E-01  1.14487618E+00  3.72927271E+00
 -4.15897862E-01  1.14487618E+00  3.72927271E+00 -4.15897862E-01  1.14487618E+00
  3.72927271E+00 -4.15897862E-01 -2.76580208E+00  1.99407989E+00  2.27590836E-01
 -2.76580208E+00  1.99407989E+00  2.27590836E-01 -2.76580208E+00  1.99407989E+00
  2.27590836E-01 -2.76580208E+00  1.99407989E+00  2.27590836E-01  7.11807559E-01
 -7.92122260E-01 -5.45264982E-01  7.11807559E-01 -7.92122260E-01 -5.45264982E-01
  7.11807559E-01 -7.92122260E-01 -5.45264982E-01  7.11807559E-01 -7.92122260E-01
 -5.45264982E-01  3.48604204E+00 -1.13446437E+00 -1.01543770E+00  3.48604204E+00
 -1.13446437E+00 -1.01543770E+00  3.48604204E+00 -1.13446437E+00 -1.01543770E+00
  3.48604204E+00 -1.13446437E+00 -1.01543770E+00 -1.72384405E-01  1.79731003E+00
 -2.55416936E-01 -1.72384405E-01  1.79731003E+00 -2.55416936E-01 -1.72384405E-01
  1.79731003E+00 -2.55416936E-01 -1.72384405E-01  1.79731003E+00 -2.55416936E-01
 -9.55459279E-01 -2.77185519E+00 -3.25371697E-01 -9.55459279E-01 -2.77185519E+00
 -3.25371697E-01 -9.55459279E-01 -2.77185519E+00 -3.25371697E-01 -9.55459279E-01
 -2.77185519E+00 -3.25371697E-01  5.05958620E+00 -5.95861482E-01  1.35481489E+00
  5.05958620E+00 -5.95861482E-01  1.35481489E+00  5.05958620E+00 -5.95861482E-01
  1.35481489E+00  5.05958620E+00 -5.95861482E-01  1.35481489E+00 -3.56688057E+00
 -2.39181769E+00  1.79229430E-01 -3.56688057E+00 -2.39181769E+00  1.79229430E-01
 -3.56688057E+00 -2.39181769E+00  1.79229430E-01 -3.56688057E+00 -2.39181769E+00
  1.79229430E-01 -4.42550696E+00  2.63035776E-02  4.50151919E-01 -4.42550696E+00
  2.63035776E-02  4.50151919E-01 -4.42550696E+00  2.63035776E-02  4.50151919E-01
 -4.42550696E+00  2.63035776E-02  4.50151919E-01  3.82895779E+00 -3.06565558E+00
 -1.68131265E+00  3.82895779E+00 -3.06565558E+00 -1.68131265E+00  4.06325618E+00
  1.63691482E-01 -2.52092829E+00  4.06325618E+00  1.63691482E-01 -2.52092829E+00
 -2.50399770E-01 -4.69245154E+00 -5.53971767E-01 -2.50399770E-01 -4.69245154E+00
 -5.53971767E-01  7.07338211E+00 -8.67075492E-01  9.72380784E-01  7.07338211E+00
 -8.67075492E-01  9.72380784E-01  4.51573726E+00 -1.86597550E+00  2.89256252E+00
  4.51573726E+00 -1.86597550E+00  2.89256252E+00  4.76647133E+00  1.35268678E+00
  1.96397822E+00  4.76647133E+00  1.35268678E+00  1.96397822E+00 -3.37639810E+00
  3.80598107E+00  4.21688361E-01 -3.37639810E+00  3.80598107E+00  4.21688361E-01
 -4.86424309E+00 -3.96790695E+00  3.47849085E-01 -4.86424309E+00 -3.96790695E+00
  3.47849085E-01 -6.37838614E+00  5.19009183E-01  8.35571227E-01 -6.37838614E+00
  5.19009183E-01  8.35571227E-01
Constraint Structure                       R   N=          54
  1.14487618E+00  3.72927271E+00 -4.15897862E-01 -2.76580208E+00  1.99407989E+00
  2.27590836E-01  7.11807559E-01 -7.92122260E-01 -5.45264982E-01  3.48604204E+00
 -1.13446437E+00 -1.01543770E+00 -1.72384405E-01  1.79731003E+00 -2.55416936E-01
 -9.55459279E-01 -2.77185519E+00 -3.25371697E-01  5.05958620E+00 -5.95861482E-01
  1.35481489E+00 -3.56688057E+00 -2.39181769E+00  1.79229430E-01 -4.42550696E+00
  2.63035776E-02  4.50151919E-01  3.82895779E+00 -3.06565558E+00 -1.68131265E+00
  4.06325618E+00  1.63691482E-01 -2.52092829E+00 -2.50399770E-01 -4.69245154E+00
 -5.53971767E-01  7.07338211E+00 -8.67075492E-01  9.72380784E-01  4.51573726E+00
 -1.86597550E+00  2.89256252E+00  4.76647133E+00  1.35268678E+00  1.96397822E+00
 -3.37639810E+00  3.80598107E+00  4.21688361E-01 -4.86424309E+00 -3.96790695E+00
  3.47849085E-01 -6.37838614E+00  5.19009183E-01  8.35571227E-01
Num ILSW                                   I              100
ILSW                                       I   N=         100
           0           1           0           0           2           0
           0           0           0           0           0          -1
           0           0           0           0           0           0
           0           0           0           0           1           0
           1           0           0           0           0           0
           0           0      100000           0          -1           0
           0           0           0           0           0           0
           0           0           0           1           1           0
           0           0           1           0           0           0
           0           0           4          40           0           0
           0           0           0           0           0           0
           0           0           0           0           0           0
           0           0           0           0           0           0
           0           0           0           0           0           0
           0           0           0           0           0           0
           0           0           0           0           0           0
           0           0           0           0
Num RLSW                                   I               40
RLSW                                       R   N=          40
  1.00000000E+00  1.00000000E+00  1.00000000E+00  1.00000000E+00  1.00000000E+00
  0.00000000E+00  0.00000000E+00  1.00000000E+00  0.00000000E+00  0.00000000E+00
  0.00000000E+00  0.00000000E+00  1.00000000E+00  0.00000000E+00  0.00000000E+00
  0.00000000E+00  0.00000000E+00  1.00000000E+00  0.00000000E+00  0.00000000E+00
  0.00000000E+00  0.00000000E+00  1.00000000E+00  0.00000000E+00  0.00000000E+00
  0.00000000E+00  0.00000000E+00  1.00000000E+00  0.00000000E+00  0.00000000E+00
  0.00000000E+00  0.00000000E+00  0.00000000E+00  0.00000000E+00  0.00000000E+00
  0.00000000E+00  0.00000000E+00  0.00000000E+00  1.00000000E+00  1.00000000E+00
MxBond                                     I                4
NBond                                      I   N=          18
           1           3           3           4           3           3
           4           3           3           1           1           1
           1           1           1           1           1           1
IBond                                      I   N=          72
           5           0           0           0           5           9
          16           0           4           5           6           0
           3           7          10          11           1           2
           3           0           3           8          12           0
           4          13          14          15           6           9
          17           0           2           8          18           0
           4           0           0           0           4           0
           0           0           6           0           0           0
           7           0           0           0           7           0
           0           0           7           0           0           0
           2           0           0           0           8           0
           0           0           9           0           0           0
RBond                                      R   N=          72
  2.00000000E+00  0.00000000E+00  0.00000000E+00  0.00000000E+00  1.00000000E+00
  1.00000000E+00  1.00000000E+00  0.00000000E+00  1.00000000E+00  1.00000000E+00
  2.00000000E+00  0.00000000E+00  1.00000000E+00  1.00000000E+00  1.00000000E+00
  1.00000000E+00  2.00000000E+00  1.00000000E+00  1.00000000E+00  0.00000000E+00
  2.00000000E+00  1.00000000E+00  1.00000000E+00  0.00000000E+00  1.00000000E+00
  1.00000000E+00  1.00000000E+00  1.00000000E+00  1.00000000E+00  2.00000000E+00
  1.00000000E+00  0.00000000E+00  1.00000000E+00  2.00000000E+00  1.00000000E+00
  0.00000000E+00  1.00000000E+00  0.00000000E+00  0.00000000E+00  0.00000000E+00
  1.00000000E+00  0.00000000E+00  0.00000000E+00  0.00000000E+00  1.00000000E+00
  0.00000000E+00  0.00000000E+00  0.00000000E+00  1.00000000E+00  0.00000000E+00
  0.00000000E+00  0.00000000E+00  1.00000000E+00  0.00000000E+00  0.00000000E+00
  0.00000000E+00  1.00000000E+00  0.00000000E+00  0.00000000E+00  0.00000000E+00
  1.00000000E+00  0.00000000E+00  0.00000000E+00  0.00000000E+00  1.00000000E+00
  0.00000000E+00  0.00000000E+00  0.00000000E+00  1.00000000E+00  0.00000000E+00
  0.00000000E+00  0.00000000E+00
Virial Ratio                               R      2.002390935650301E+00
SCF Energy                                 R     -3.996358780355027E+02
MP2 Energy                                 R     -4.008703840640811E+02
Total Energy                               R     -4.008703840640811E+02
Post-SCF wavefunction norm                 R      1.684384947169455E+00
RMS Force                                  R      3.614496766122814E-07
RMS Density                                R      2.782106602521805E-09
External E-field                           R   N=          35
  0.00000000E+00  0.00000000E+00  0.00000000E+00  0.00000000E+00  0.00000000E+00
  0.00000000E+00  0.00000000E+00  0.00000000E+00  0.00000000E+00  0.00000000E+00
  0.00000000E+00  0.00000000E+00  0.00000000E+00  0.00000000E+00  0.00000000E+00
  0.00000000E+00  0.00000000E+00  0.00000000E+00  0.00000000E+00  0.00000000E+00
  0.00000000E+00  0.00000000E+00  0.00000000E+00  0.00000000E+00  0.00000000E+00
  0.00000000E+00  0.00000000E+00  0.00000000E+00  0.00000000E+00  0.00000000E+00
  0.00000000E+00  0.00000000E+00  0.00000000E+00  0.00000000E+00  0.00000000E+00
IOpCl                                      I                0
IROHF                                      I                0
Alpha Orbital Energies                     R   N=         153
 -2.05115847E+01 -1.56280388E+01 -1.13515928E+01 -1.13094332E+01 -1.12643532E+01
 -1.12417776E+01 -1.12413256E+01 -1.12216413E+01 -1.12037688E+01 -1.36461110E+00
 -1.26707863E+00 -1.11334767E+00 -1.05141674E+00 -9.90349358E-01 -8.85013492E-01
 -8.64080235E-01 -8.14406477E-01 -7.34160001E-01 -6.98219010E-01 -6.67658884E-01
 -6.21770556E-01 -6.05429805E-01 -5.97154258E-01 -5.87360974E-01 -5.61244294E-01
 -5.41402131E-01 -5.10908115E-01 -4.91104959E-01 -4.81311938E-01 -4.68508061E-01
 -4.13634984E-01 -4.05631364E-01 -2.99078753E-01  1.02658743E-01  1.69448216E-01
  2.10962139E-01  2.50315055E-01  2.66587569E-01  2.89761105E-01  3.03046963E-01
  3.15064902E-01  3.29856733E-01  3.36210126E-01  3.48402850E-01  3.54726623E-01
  4.01868910E-01  4.17663485E-01  4.36695367E-01  4.89779104E-01  4.99465259E-01
  5.12666381E-01  5.26315684E-01  6.36264112E-01  6.70611766E-01  7.11093334E-01
  7.25211757E-01  7.40975133E-01  7.50635916E-01  7.71378709E-01  7.80460855E-01
  8.11746619E-01  8.20416197E-01  8.40233691E-01  8.41199629E-01  8.63193889E-01
  8.95275268E-01  9.08590824E-01  9.44849212E-01  9.56492108E-01  1.01836840E+00
  1.03147301E+00  1.06699014E+00  1.07387300E+00  1.08330797E+00  1.09224060E+00
  1.10939075E+00  1.11508291E+00  1.15026706E+00  1.15977020E+00  1.16835396E+00
  1.17933143E+00  1.20259805E+00  1.21777037E+00  1.24991758E+00  1.26342685E+00
  1.26688677E+00  1.29299064E+00  1.35853024E+00  1.39031394E+00  1.39501367E+00
  1.42538561E+00  1.46277319E+00  1.47999962E+00  1.57250700E+00  1.58412212E+00
  1.63821828E+00  1.66451985E+00  1.69368418E+00  1.70241340E+00  1.73717699E+00
  1.74577590E+00  1.76760789E+00  1.80061295E+00  1.96491471E+00  1.97467209E+00
  2.00668894E+00  2.06135066E+00  2.09674594E+00  2.13073266E+00  2.16619730E+00
  2.18727895E+00  2.20674478E+00  2.22867824E+00  2.24041927E+00  2.26915419E+00
  2.31986468E+00  2.35261921E+00  2.36682036E+00  2.38672554E+00  2.43437810E+00
  2.48127662E+00  2.51205283E+00  2.53233457E+00  2.56580887E+00  2.59165216E+00
  2.62890276E+00  2.65698718E+00  2.69770868E+00  2.71750249E+00  2.73435008E+00
  2.80157192E+00  2.88910942E+00  2.91479313E+00  2.95175831E+00  2.99143245E+00
  3.01480904E+00  3.03476000E+00  3.10960223E+00  3.14748628E+00  3.18256038E+00
  3.22588540E+00  3.37753160E+00  3.56214530E+00  3.76695233E+00  4.39508826E+00
  4.48647028E+00  4.53136443E+00  4.63301452E+00  4.64646621E+00  4.76197298E+00
  4.86955291E+00  4.96750257E+00  5.16917594E+00
Alpha MO coefficients                      R   N=       23409
  9.94692238E-01  2.09700606E-02 -8.85941081E-04 -1.23880804E-03  1.08276939E-04
  4.41803831E-03  4.47294187E-05  9.45041583E-05  6.93064480E-06 -3.83873645E-03
 -3.76160633E-03 -4.07153385E-03  1.21222826E-04 -4.33708034E-05 -8.60074670E-06
 -1.65660364E-05 -5.59374100E-05 -4.13104567E-05 -1.37884794E-05  7.69933104E-06
  3.59427455E-04  2.27008429E-04 -6.75951292E-06 -4.50065248E-05 -5.18579297E-05
 -2.97950592E-05 -6.34512051E-05 -8.83712493E-05 -6.94260425E-06  1.81793396E-05
 -2.56985006E-07 -1.76634845E-06 -9.23372460E-06 -1.25816843E-05  2.15081846E-06
 -6.95368689E-05 -1.96984388E-05 -7.73621296E-05  4.61336418E-06  4.69054377E-05
 -4.61637985E-05 -1.31274209E-05 -6.99077797E-05 -1.50430617E-05  1.03354690E-05
  3.10196046E-06  1.79951824E-05  3.96460887E-07  2.19371447E-05  9.35122382E-06
  1.18483211E-05  4.59367874E-05 -9.68802317E-05 -5.98216573E-05 -1.64253191E-05
  8.62140351E-06  4.75604719E-06 -6.53832639E-06  6.39742501E-06  2.93887643E-06
 -5.43271586E-06  5.32205445E-04  9.86775727E-07  3.11472789E-05 -1.58480976E-06
 -4.73515414E-04  4.27812034E-06 -5.07335019E-04 -1.91757614E-05 -2.81582655E-04
 -5.23683411E-04 -6.13080830E-05 -3.75094753E-04  3.04919257E-05  4.49558851E-05
  3.78742711E-06  2.48705773E-05  1.36744225E-05  1.10531841E-05 -2.40149170E-06
 -1.38095279E-04  1.69438288E-05 -9.91874413E-05 -7.55360684E-06  2.36062890E-05
 -1.00950978E-05  7.83766916E-06  1.82600048E-05 -2.52993310E-06 -4.60551704E-06
 -4.47923281E-06 -2.42261964E-05 -8.55061354E-06 -4.36077591E-06 -1.12021620E-05
  1.88207212E-04 -1.09521295E-05  8.43650394E-05  3.55726404E-05 -1.14663797E-06
 -3.92970267E-06 -7.99946193E-06 -2.84568496E-06 -1.55618953E-06 -6.56652682E-06
 -3.56215325E-07 -1.63636171E-06  4.05048329E-06  9.84164533E-06 -3.15688423E-08
  2.48730318E-04  1.43240285E-05  1.10894086E-04  1.39052883E-06 -7.51103517E-06
  1.36593117E-06  3.60732163E-06  1.08841808E-05  2.95620372E-06 -2.30716439E-06
  6.93082813E-06  3.17412643E-05  2.17850186E-05  1.84687287E-05 -3.25034984E-06
 -1.76183514E-04 -1.84144913E-04  1.55229021E-04  4.21935123E-05 -4.51522413E-06
  3.92517237E-05  1.37694748E-05  2.11934560E-05  5.15374319E-06 -2.66592941E-06
 -1.45957653E-05 -5.92684798E-05  2.95541967E-05 -6.23446469E-05  2.25114410E-07
 -2.87866889E-05 -1.00527598E-05 -4.78385510E-06 -9.89361425E-06 -4.54071651E-06
  2.34210191E-05 -1.92454833E-04 -1.09094610E-05 -1.44153090E-05 -3.14113051E-06
  1.30010620E-05 -9.56410796E-06 -8.36761913E-05 -4.60574503E-05 -2.48212606E-04