opt=Tight                                                               
Freq      RMP2-FC                                                     6-31G(d)            
Number of atoms                            I                8
Info1-9                                    I   N=           9
          17          17        1002           0           0         100
           6           2           1
Charge                                     I                1
Multiplicity                               I                1
Number of electrons                        I               18
Number of alpha electrons                  I                9
Number of beta electrons                   I                9
Number of basis functions                  I               42
Number of independent functions            I               42
Number of point charges in /Mol/           I                0
Number of translation vectors              I                0
Atomic numbers                             I   N=           8
           7           1           1           1           6           1
           1           1
Nuclear charges                            R   N=           8
  7.00000000E+00  1.00000000E+00  1.00000000E+00  1.00000000E+00  6.00000000E+00
  1.00000000E+00  1.00000000E+00  1.00000000E+00
Current cartesian coordinates              R   N=          24
 -1.32782236E+00  4.43685969E-06  7.77294639E-05 -2.04235735E+00  1.55368602E+00
  9.12541343E-01 -2.04118079E+00  1.37194556E-02 -1.80162618E+00 -2.04229236E+00
 -1.56743424E+00  8.88760768E-01  1.50054651E+00  4.32613461E-06  1.43767376E-05
  2.13861769E+00 -1.68251521E+00 -9.89066836E-01  2.13868310E+00  1.69788441E+00
 -9.62425978E-01  2.14000718E+00 -1.53974382E-02  1.95118651E+00
Force Field                                I                0
Int Atom Types                             I   N=           8
           0           0           0           0           0           0
           0           0
MM charges                                 R   N=           8
  0.00000000E+00  0.00000000E+00  0.00000000E+00  0.00000000E+00  0.00000000E+00
  0.00000000E+00  0.00000000E+00  0.00000000E+00
Integer atomic weights                     I   N=           8
          14           1           1           1          12           1
           1           1
Real atomic weights                        R   N=           8
  1.40030740E+01  1.00782504E+00  1.00782504E+00  1.00782504E+00  1.20000000E+01
  1.00782504E+00  1.00782504E+00  1.00782504E+00
Atom fragment info                         I   N=           8
           0           0           0           0           0           0
           0           0
Atom residue num                           I   N=           8
           0           0           0           0           0           0
           0           0
Nuclear spins                              I   N=           8
           2           1           1           1           0           1
           1           1
Nuclear ZEff                               R   N=           8
 -4.55000000E+00 -1.00000000E+00 -1.00000000E+00 -1.00000000E+00 -3.60000000E+00
 -1.00000000E+00 -1.00000000E+00 -1.00000000E+00
Nuclear QMom                               R   N=           8
  2.04400000E+00  0.00000000E+00  0.00000000E+00  0.00000000E+00  0.00000000E+00
  0.00000000E+00  0.00000000E+00  0.00000000E+00
Nuclear GFac                               R   N=           8
  4.03761000E-01  2.79284600E+00  2.79284600E+00  2.79284600E+00  0.00000000E+00
  2.79284600E+00  2.79284600E+00  2.79284600E+00
MicOpt                                     I   N=           8
          -1          -1          -1          -1          -1          -1
          -1          -1
Number of contracted shells                I               20
Number of primitive shells                 I               46
Pure/Cartesian d shells                    I                1
Pure/Cartesian f shells                    I                0
Highest angular momentum                   I                2
Largest degree of contraction              I                6
Shell types                                I   N=          20
           0          -1          -1           2           0           0
           0           0           0           0           0          -1
          -1           2           0           0           0           0
           0           0
Number of primitives per shell             I   N=          20
           6           3           1           1           3           1
           3           1           3           1           6           3
           1           1           3           1           3           1
           3           1
Shell to atom map                          I   N=          20
           1           1           1           1           2           2
           3           3           4           4           5           5
           5           5           6           6           7           7
           8           8
Primitive exponents                        R   N=          46
  4.17351146E+03  6.27457911E+02  1.42902093E+02  4.02343293E+01  1.28202129E+01
  4.39043701E+00  1.16263619E+01  2.71627981E+00  7.72218397E-01  2.12031498E-01
  8.00000000E-01  1.87311370E+01  2.82539436E+00  6.40121692E-01  1.61277759E-01
  1.87311370E+01  2.82539436E+00  6.40121692E-01  1.61277759E-01  1.87311370E+01
  2.82539436E+00  6.40121692E-01  1.61277759E-01  3.04752488E+03  4.57369518E+02
  1.03948685E+02  2.92101553E+01  9.28666296E+00  3.16392696E+00  7.86827235E+00
  1.88128854E+00  5.44249258E-01  1.68714478E-01  8.00000000E-01  1.87311370E+01
  2.82539436E+00  6.40121692E-01  1.61277759E-01  1.87311370E+01  2.82539436E+00
  6.40121692E-01  1.61277759E-01  1.87311370E+01  2.82539436E+00  6.40121692E-01
  1.61277759E-01
Contraction coefficients                   R   N=          46
  1.83477216E-03  1.39946270E-02  6.85865518E-02  2.32240873E-01  4.69069948E-01
  3.60455199E-01 -1.14961182E-01 -1.69117479E-01  1.14585195E+00  1.00000000E+00
  1.00000000E+00  3.34946043E-02  2.34726953E-01  8.13757326E-01  1.00000000E+00
  3.34946043E-02  2.34726953E-01  8.13757326E-01  1.00000000E+00  3.34946043E-02
  2.34726953E-01  8.13757326E-01  1.00000000E+00  1.83473713E-03  1.40373228E-02
  6.88426223E-02  2.32184443E-01  4.67941348E-01  3.62311985E-01 -1.19332420E-01
 -1.60854152E-01  1.14345644E+00  1.00000000E+00  1.00000000E+00  3.34946043E-02
  2.34726953E-01  8.13757326E-01  1.00000000E+00  3.34946043E-02  2.34726953E-01
  8.13757326E-01  1.00000000E+00  3.34946043E-02  2.34726953E-01  8.13757326E-01
  1.00000000E+00
P(S=P) Contraction coefficients            R   N=          46
  0.00000000E+00  0.00000000E+00  0.00000000E+00  0.00000000E+00  0.00000000E+00
  0.00000000E+00  6.75797439E-02  3.23907296E-01  7.40895140E-01  1.00000000E+00
  0.00000000E+00  0.00000000E+00  0.00000000E+00  0.00000000E+00  0.00000000E+00
  0.00000000E+00  0.00000000E+00  0.00000000E+00  0.00000000E+00  0.00000000E+00
  0.00000000E+00  0.00000000E+00  0.00000000E+00  0.00000000E+00  0.00000000E+00
  0.00000000E+00  0.00000000E+00  0.00000000E+00  0.00000000E+00  6.89990666E-02
  3.16423961E-01  7.44308291E-01  1.00000000E+00  0.00000000E+00  0.00000000E+00
  0.00000000E+00  0.00000000E+00  0.00000000E+00  0.00000000E+00  0.00000000E+00
  0.00000000E+00  0.00000000E+00  0.00000000E+00  0.00000000E+00  0.00000000E+00
  0.00000000E+00
Coordinates of each shell                  R   N=          60
 -1.32782236E+00  4.43685969E-06  7.77294639E-05 -1.32782236E+00  4.43685969E-06
  7.77294639E-05 -1.32782236E+00  4.43685969E-06  7.77294639E-05 -1.32782236E+00
  4.43685969E-06  7.77294639E-05 -2.04235735E+00  1.55368602E+00  9.12541343E-01
 -2.04235735E+00  1.55368602E+00  9.12541343E-01 -2.04118079E+00  1.37194556E-02
 -1.80162618E+00 -2.04118079E+00  1.37194556E-02 -1.80162618E+00 -2.04229236E+00
 -1.56743424E+00  8.88760768E-01 -2.04229236E+00 -1.56743424E+00  8.88760768E-01
  1.50054651E+00  4.32613461E-06  1.43767376E-05  1.50054651E+00  4.32613461E-06
  1.43767376E-05  1.50054651E+00  4.32613461E-06  1.43767376E-05  1.50054651E+00
  4.32613461E-06  1.43767376E-05  2.13861769E+00 -1.68251521E+00 -9.89066836E-01
  2.13861769E+00 -1.68251521E+00 -9.89066836E-01  2.13868310E+00  1.69788441E+00
 -9.62425978E-01  2.13868310E+00  1.69788441E+00 -9.62425978E-01  2.14000718E+00
 -1.53974382E-02  1.95118651E+00  2.14000718E+00 -1.53974382E-02  1.95118651E+00
Constraint Structure                       R   N=          24
 -1.32782236E+00  4.43685969E-06  7.77294639E-05 -2.04235735E+00  1.55368602E+00
  9.12541343E-01 -2.04118079E+00  1.37194556E-02 -1.80162618E+00 -2.04229236E+00
 -1.56743424E+00  8.88760768E-01  1.50054651E+00  4.32613461E-06  1.43767376E-05
  2.13861769E+00 -1.68251521E+00 -9.89066836E-01  2.13868310E+00  1.69788441E+00
 -9.62425978E-01  2.14000718E+00 -1.53974382E-02  1.95118651E+00
Num ILSW                                   I              100
ILSW                                       I   N=         100
           0           1           0           1           2           0
           0           0           0           0           0          -1
           0           0           0           0           0           0
           0           0           0           0           1           0
           1           0           0           0           0           0
           0           0      100000           0          -1           0
           0           0           0           0           0           0
           0           0           0           1           1           0
           0           0           1           0           0           0
           0           0           4          40           0           0
           0           0           0           0           0           0
           0           0           0           0           0           0
           0           0           0           0           0           0
           0           0           0           0           0           0
           0           0           0           0           0           0
           0           0           0           0           0           0
           0           0           0           0
Num RLSW                                   I               40
RLSW                                       R   N=          40
  1.00000000E+00  1.00000000E+00  1.00000000E+00  1.00000000E+00  1.00000000E+00
  0.00000000E+00  0.00000000E+00  1.00000000E+00  0.00000000E+00  0.00000000E+00
  0.00000000E+00  0.00000000E+00  1.00000000E+00  0.00000000E+00  0.00000000E+00
  0.00000000E+00  0.00000000E+00  1.00000000E+00  0.00000000E+00  0.00000000E+00
  0.00000000E+00  0.00000000E+00  1.00000000E+00  0.00000000E+00  0.00000000E+00
  0.00000000E+00  0.00000000E+00  1.00000000E+00  0.00000000E+00  0.00000000E+00
  0.00000000E+00  0.00000000E+00  0.00000000E+00  0.00000000E+00  0.00000000E+00
  0.00000000E+00  0.00000000E+00  0.00000000E+00  1.00000000E+00  1.00000000E+00
MxBond                                     I                4
NBond                                      I   N=           8
           4           1           1           1           4           1
           1           1
IBond                                      I   N=          32
           2           3           4           5           1           0
           0           0           1           0           0           0
           1           0           0           0           1           6
           7           8           5           0           0           0
           5           0           0           0           5           0
           0           0
RBond                                      R   N=          32
  1.00000000E+00  1.00000000E+00  1.00000000E+00  1.00000000E+00  1.00000000E+00
  0.00000000E+00  0.00000000E+00  0.00000000E+00  1.00000000E+00  0.00000000E+00
  0.00000000E+00  0.00000000E+00  1.00000000E+00  0.00000000E+00  0.00000000E+00
  0.00000000E+00  1.00000000E+00  1.00000000E+00  1.00000000E+00  1.00000000E+00
  1.00000000E+00  0.00000000E+00  0.00000000E+00  0.00000000E+00  1.00000000E+00
  0.00000000E+00  0.00000000E+00  0.00000000E+00  1.00000000E+00  0.00000000E+00
  0.00000000E+00  0.00000000E+00
Virial Ratio                               R      2.003678338219184E+00
SCF Energy                                 R     -9.567738808743692E+01
MP2 Energy                                 R     -9.597288360640052E+01
Total Energy                               R     -9.597288360640052E+01
Post-SCF wavefunction norm                 R      1.476333129045694E+00
RMS Force                                  R      3.848578564318238E-05
RMS Density                                R      3.780512923438427E-10
External E-field                           R   N=          35
  0.00000000E+00  0.00000000E+00  0.00000000E+00  0.00000000E+00  0.00000000E+00
  0.00000000E+00  0.00000000E+00  0.00000000E+00  0.00000000E+00  0.00000000E+00
  0.00000000E+00  0.00000000E+00  0.00000000E+00  0.00000000E+00  0.00000000E+00
  0.00000000E+00  0.00000000E+00  0.00000000E+00  0.00000000E+00  0.00000000E+00
  0.00000000E+00  0.00000000E+00  0.00000000E+00  0.00000000E+00  0.00000000E+00
  0.00000000E+00  0.00000000E+00  0.00000000E+00  0.00000000E+00  0.00000000E+00
  0.00000000E+00  0.00000000E+00  0.00000000E+00  0.00000000E+00  0.00000000E+00
IOpCl                                      I                0
IROHF                                      I                0
Alpha Orbital Energies                     R   N=          42
 -1.57126639E+01 -1.13020573E+01 -1.32431020E+00 -9.83551119E-01 -7.82263561E-01
 -7.82247360E-01 -6.71387880E-01 -5.91299361E-01 -5.91254560E-01  1.65431023E-01
  2.50487296E-01  2.50599199E-01  2.56568391E-01  2.98223918E-01  2.98237167E-01
  3.27810054E-01  7.01419821E-01  7.07640864E-01  7.07645523E-01  8.78705526E-01
  8.78812989E-01  9.26320154E-01  1.09240517E+00  1.09252155E+00  1.10478036E+00
  1.14236107E+00  1.14244590E+00  1.19136191E+00  1.26344994E+00  1.67729705E+00
  1.67732552E+00  1.77144569E+00  2.21854286E+00  2.25341816E+00  2.25344816E+00
  2.55827784E+00  2.55851013E+00  2.62767419E+00  2.62785694E+00  2.87742002E+00
  4.12179716E+00  4.61628914E+00
Alpha MO coefficients                      R   N=        1764
  9.94923600E-01  2.52583241E-02 -8.31833453E-05 -1.84146175E-09 -2.30145647E-08
 -2.09779646E-03 -2.98951763E-04  9.67953385E-09  1.61221153E-07 -3.61213947E-03
 -3.49390982E-03 -3.49365666E-03 -2.40124178E-09  1.00823692E-07 -7.65483795E-10
  3.32875926E-04  3.38216854E-04  3.32891970E-04  3.38429307E-04  3.32881762E-04
  3.38220220E-04 -1.68048808E-05  8.22742289E-05 -2.93345682E-04  1.21594685E-09
  1.69922103E-08  1.19611514E-03 -4.32131400E-04 -3.86695404E-09  5.45591591E-08
 -8.07590474E-06 -7.93314633E-05 -7.93697390E-05 -1.16648645E-09 -4.18324532E-09
  7.54432073E-10 -7.32239617E-05 -1.14265999E-04 -7.32228701E-05 -1.14260868E-04
 -7.32212413E-05 -1.14241595E-04 -1.89103749E-04  1.71315181E-04 -1.84013701E-05
 -1.43286630E-09 -1.22524452E-07  2.43069004E-03  9.36923745E-04  2.62776149E-08
  1.22393661E-06 -7.79963811E-04 -4.38036317E-05 -4.39973068E-05 -1.31593920E-09
  5.02225023E-08  6.12831199E-09 -8.10931121E-05  2.00243544E-04 -8.05932177E-05
  2.01110498E-04 -8.10728731E-05  2.00271379E-04  9.95719774E-01  2.80809485E-02
 -9.65577447E-04  1.57981529E-08  3.02174363E-07 -1.34888439E-02  6.31595876E-04
  3.88145785E-08 -2.68896724E-07 -1.96043668E-03 -1.80482472E-03 -1.80485892E-03
  8.46115254E-09  2.57967594E-07 -3.47637234E-09  1.26767650E-04  2.48464412E-03
  1.26747208E-04  2.48461096E-03  1.26753219E-04  2.48466957E-03 -1.94654483E-01
  4.16981203E-01  1.66122073E-03 -3.89909544E-07 -7.66488255E-05  4.19296599E-01
 -2.17788180E-03  2.15517445E-06 -2.18044311E-06  1.04902817E-02  1.43383387E-02
  1.43407203E-02 -6.07124589E-07 -1.72820921E-06 -8.06961144E-07  1.09391069E-01
 -8.33609786E-03  1.09454899E-01 -8.36299354E-03  1.09391782E-01 -8.33379337E-03
 -6.68118778E-02  1.22568813E-01 -8.01776365E-02 -2.53667088E-07 -6.50596598E-06
  6.16263455E-02 -3.00392259E-03 -2.09710911E-06 -2.59624389E-06  2.02291182E-02
 -2.27137976E-03 -2.27639815E-03  7.86676301E-08  1.84867115E-06 -5.81027642E-08
  2.67247312E-02  1.82919820E-03  2.67241427E-02  1.83201431E-03  2.67113039E-02
  1.82564552E-03  5.04594361E-02 -1.09680631E-01  2.31216676E-01 -2.93512488E-06
  4.65693509E-05 -1.64620188E-01  1.16351304E-01 -2.13739048E-06 -3.95899467E-06
  1.64158617E-02 -1.19086476E-02 -1.19051330E-02  6.21499340E-07  2.32233923E-06
 -2.29675378E-07 -7.24549525E-02 -6.74935494E-03 -7.24442030E-02 -6.74353558E-03
 -7.24502181E-02 -6.74826923E-03 -1.78423134E-01  3.41990301E-01  2.70119136E-02
 -1.87949702E-06  4.97940000E-06  3.39578338E-01  1.57750338E-02 -1.83152241E-06
  2.62607411E-05 -1.50491597E-03  1.22740394E-02  1.22647083E-02  3.66678551E-07
  1.12502239E-05 -3.93347912E-07  1.27888743E-01  2.43845196E-02  1.27888878E-01
  2.43884673E-02  1.27898459E-01  2.43753936E-02 -1.56189486E-05  1.60063089E-05
 -1.20688358E-04 -5.94019842E-02  4.79935108E-01  6.15156382E-05 -6.60352030E-05
 -3.84835280E-02  3.10872884E-01  1.54942810E-05  2.24834392E-02 -2.24971815E-02
  2.29529481E-03 -1.85328535E-02 -2.61095449E-03  9.39847355E-02  2.14063269E-02
 -2.35240748E-01 -5.34346665E-02  1.41270083E-01  3.21690227E-02 -1.32413008E-05
  3.26032404E-05  7.76555643E-05 -1.89693328E-02  1.53185632E-01  2.11972247E-05
  1.38908717E-05 -6.35873731E-03  5.12730317E-02 -5.74497851E-06 -6.73430756E-03
  6.73733868E-03  7.60562270E-04 -6.14596655E-03  7.76670529E-04 -2.97624277E-02
 -1.32221769E-02 -4.47158047E-02 -1.98528166E-02  7.45264851E-02  3.31235787E-02
 -1.38614223E-06  5.80295813E-07 -2.34917295E-05  4.79856713E-01  5.94141125E-02
  5.52736004E-06 -1.45534037E-05  3.10843151E-01  3.84802424E-02  2.47868929E-06
  2.26243223E-03 -2.26479289E-03 -1.85461699E-02 -2.29502482E-03  2.59427812E-02
  2.17370144E-01  4.94841206E-02 -2.73050914E-02 -6.20195607E-03 -1.90065058E-01
 -4.32637779E-02 -4.11636601E-06  9.65750054E-06  1.65205179E-05  1.53243850E-01
  1.89629052E-02  8.65902456E-06  3.77353319E-06  5.13245184E-02  6.35056557E-03
 -1.17885697E-06 -6.71203487E-04  6.72658290E-04 -6.14539678E-03 -7.61050738E-04
 -7.78561320E-03 -6.88768313E-02 -3.05777054E-02  6.02590759E-02  2.67569234E-02
  8.63292402E-03  3.83203156E-03 -2.64632201E-02  6.05454668E-02  4.55515535E-01
  1.29255908E-05  2.50009516E-04  1.17158632E-01  3.25217430E-01  8.59157501E-06
  1.63399407E-04  1.43035148E-02 -1.07731123E-02 -1.07813180E-02  1.98255029E-07
 -5.34602077E-06  2.54310358E-07 -7.20295409E-02 -2.58953021E-02 -7.21124005E-02
 -2.59137756E-02 -7.20356376E-02 -2.58971848E-02  3.33598790E-02 -5.86671342E-02
 -3.52858889E-01  3.50590900E-06 -1.24471786E-04 -1.91967489E-01 -9.30439053E-02
  1.53652806E-06 -6.16413979E-05  3.97495400E-02 -2.11425641E-02 -2.11636443E-02
 -7.98714411E-07 -3.18978637E-05  4.80997240E-07 -9.85972158E-02 -5.64027675E-02
 -9.86012077E-02 -5.64057566E-02 -9.88051916E-02 -5.65102926E-02  5.52887463E-08
 -4.15716319E-07 -3.30546377E-06 -1.81622188E-01  5.04980426E-03  7.10707386E-07
 -2.24845669E-06 -1.35394535E-01  3.76297925E-03 -3.44771833E-07  5.99791420E-04
 -5.99431026E-04  2.27116570E-02 -6.30720757E-04 -1.36210051E-02 -9.39412839E-02
 -5.44061275E-02 -3.92174007E-03 -2.27419490E-03  9.78663380E-02  5.66826045E-02
 -2.48406258E-08  6.12161186E-08  3.56743124E-06  4.38798338E-01 -1.22045791E-02
 -2.55194867E-06  4.30937682E-07  2.49880449E-01 -6.95674665E-03 -2.06653976E-07
  1.40909366E-03 -1.40905890E-03  1.98975074E-02 -5.54801980E-04 -3.16108317E-02
 -2.24760362E-01 -1.50558432E-01  2.34223939E-01  1.56899530E-01 -9.46150737E-03
 -6.33269711E-03 -2.43184959E-05  7.76384365E-05  2.43236652E-04 -5.04958899E-03
 -1.81573167E-01  6.64205396E-05  1.74692789E-04 -3.75938947E-03 -1.35351509E-01
 -2.22008755E-06 -1.17964189E-02  1.18026940E-02  6.32157825E-04  2.26971454E-02
 -6.92164437E-04 -5.87664534E-02 -3.40525223E-02  1.10659509E-01  6.40757264E-02
 -5.19685280E-02 -3.01050733E-02  2.25624595E-05 -6.08332217E-05 -6.46292461E-05
  1.22070524E-02  4.38819447E-01 -6.54516533E-05 -2.39619200E-05  6.95078043E-03
  2.49897597E-01  3.78085473E-05 -2.73965096E-02  2.73552986E-02  5.52851154E-04
  1.99222429E-02 -1.62796055E-03 -1.40762090E-01 -9.43182172E-02 -1.24373351E-01
 -8.33424927E-02  2.64948005E-01  1.77511751E-01 -1.19799018E-01  1.58682882E-01
 -8.53065055E-02 -7.02714349E-06  3.59566826E-04  1.77169656E+00 -2.71246897E-01
 -4.45862069E-05  7.51856222E-04 -2.17335989E-02 -2.84476635E-02 -2.84219276E-02
  6.42401522E-09  3.99040097E-06  6.62366908E-08 -4.77105830E-02 -8.01375921E-01
 -4.76033048E-02 -7.99431549E-01 -4.77193192E-02 -8.01429471E-01 -3.31570468E-02
  3.41619690E-02  1.18877659E-01  5.60204702E-07 -4.49885285E-05  6.12029476E-01
  4.27989668E-01  2.58854537E-05 -5.28995453E-04  7.07932420E-03 -8.53936448E-03
 -8.53299571E-03  5.13354517E-08 -1.48508770E-05  2.50396484E-07  1.20272758E-04
 -3.49498088E-01  1.21258549E-04 -3.49552330E-01  1.65138282E-04 -3.49196580E-01
 -2.13760356E-05  2.06078677E-05  1.33173796E-05  3.29557403E-01  1.05308616E-03
  3.55479896E-04  1.20755739E-04  9.96097332E-01  3.26949421E-03 -1.16607359E-05
  2.14925838E-04 -2.20511439E-04  1.50928298E-02  3.99683073E-05 -1.29480126E-02
 -1.05639547E-01 -1.37920597E+00 -5.49399600E-04 -7.14589120E-03  1.06177737E-01
  1.38611827E+00  4.34438814E-05 -4.11329543E-05  1.86110916E-05  1.04576295E-01
  2.34814828E-04 -7.56615127E-04  6.05319384E-05  1.79655736E-01  5.55902614E-05
  1.78693804E-06  4.41855952E-05 -4.25933555E-05 -1.67250905E-02 -5.11996289E-05
 -2.95321314E-03  2.07384346E-02  3.52469324E-01 -2.08811536E-02 -3.54398249E-01
  1.44567712E-04  2.80414090E-03 -3.05401513E-04  3.01497436E-04  2.82145502E-04
 -1.05083875E-03  3.29438346E-01  4.75585260E-03  2.48769445E-03 -3.24897440E-03
  9.95983173E-01 -1.83400317E-04 -1.12348573E-02  1.12035822E-02 -4.07919870E-05
  1.51032898E-02 -2.51090728E-04 -6.17193242E-02 -8.05252150E-01  1.22229327E-01
  1.59611311E+00 -6.07721513E-02 -7.92990472E-01  9.84291341E-04 -9.32555054E-04
  3.44514661E-05 -2.48032338E-04  1.04698933E-01 -1.71249557E-02  2.16642445E-04
 -1.05950961E-04  1.80284074E-01  2.97320120E-05 -2.52803059E-03  2.60714936E-03
  5.11488760E-05 -1.67209275E-02 -4.95231515E-05  1.21905702E-02  2.13487216E-01
  1.19379060E-02  2.09221806E-01 -2.40133331E-02 -4.01751028E-01  6.77486128E-02
 -6.79541584E-02 -7.17363356E-02  7.90389827E-05  1.93065448E-03 -1.12895841E+00
 -4.99828748E-01  2.26634303E-04  5.83456320E-03  3.42381122E-02  8.17581464E-03
  8.31580735E-03  5.78529265E-06  1.08154437E-04 -4.51808782E-06  1.21142754E-02
  2.17496195E-01  1.32279359E-02  2.32365432E-01  1.21789284E-02  2.18297939E-01
 -1.58209421E-01  1.44268147E-01 -2.75032492E-02  4.91025100E-05  7.93573895E-04
  2.80224193E+00 -1.69224104E-01  1.29890631E-04  1.62006690E-03 -7.90301239E-03
 -3.14208869E-03 -3.12095117E-03 -4.57485008E-06 -9.81043561E-05 -3.40134042E-07
 -4.20581708E-03 -1.09177789E+00 -4.22559445E-03 -1.09219730E+00 -4.46145567E-03
 -1.09669067E+00 -4.87869952E-06  9.36940376E-07 -3.85678864E-06 -8.87698075E-02
 -4.05054829E-03  1.23728898E-04  4.22083959E-05 -5.15872244E-01 -2.31565232E-02
 -1.76695033E-06  2.12232327E-04 -2.14257597E-04  2.33128878E-02  1.02442058E-03
  1.17915701E-02  1.08993729E-02  3.95885904E-01 -4.81011510E-04 -1.69881573E-02
 -1.04248894E-02 -3.78986201E-01  1.20412848E-05 -3.56084045E-06 -4.61717784E-06
  3.07705970E-01  1.35753158E-02 -2.56745647E-04  5.40322873E-05  1.55934164E+00
  6.89516544E-02 -8.03202416E-07  3.62900689E-04 -3.59373588E-04 -7.97251612E-03
 -3.46284477E-04  2.00705875E-02  7.15618263E-02  1.66603933E+00 -6.86158109E-02
 -1.59746813E+00 -2.94123033E-03 -6.82686379E-02  5.17689692E-05 -1.91513174E-05
  3.83221899E-04 -4.05828301E-03  8.88863683E-02 -1.28050488E-03  7.33299768E-04
 -2.31704842E-02  5.16226231E-01  7.06495930E-06 -1.01721259E-02  1.02182428E-02
  1.02442887E-03 -2.33310794E-02  2.46806633E-04 -5.70143468E-03 -2.08285409E-01
  1.24186338E-02  4.48736876E-01 -6.53377006E-03 -2.37682766E-01 -2.19004386E-05
 -2.04176668E-06  1.85859753E-04  1.35749217E-02 -3.07744660E-01  6.85491574E-04
  4.03615386E-04  6.89650129E-02 -1.55884473E+00  3.50438538E-05 -1.74057327E-02
  1.73648702E-02 -3.46482742E-04  7.98504183E-03  4.16428452E-04 -3.79781943E-02
 -8.83336678E-01 -4.30725619E-02 -1.00176946E+00  8.08818438E-02  1.88319246E+00
 -2.66202280E-02  3.39568981E-02  3.54070548E-01  3.27680523E-06  8.66662291E-05
  4.54399786E-01  1.25025003E+00  1.31775936E-05  3.95927929E-05 -2.33951277E-02
  8.09382886E-03  8.09344092E-03 -4.96095949E-07  2.52431160E-05 -1.21123220E-06
  3.93848823E-02  5.04297074E-01  3.94733440E-02  5.04585895E-01  3.93935639E-02
  5.04290409E-01  3.12916819E-02 -2.73960154E-02  3.35262680E-01 -9.14780870E-06
  3.14837331E-04 -4.24511074E-01  1.63540286E+00 -3.71921872E-05  1.46127075E-03
  2.23009466E-02 -1.77286685E-02 -1.77284989E-02  1.82874937E-07 -1.10689283E-05
 -2.59696371E-07 -5.03076401E-02 -4.19808914E-01 -5.03002727E-02 -4.19787153E-01
 -5.02591403E-02 -4.23247322E-01  1.71255564E-02 -1.18637605E-01  8.60084025E-02
  1.73360747E-05  5.79177431E-04  6.06431231E-01 -2.93481893E-01 -3.18140334E-05
 -1.59947010E-03  1.79218801E-01 -8.08624881E-02 -8.17592634E-02 -9.68235292E-06
 -5.95455173E-04  2.21171769E-05 -1.25938110E-01  8.00049283E-02 -1.31296563E-01
  8.12426412E-02 -1.26096927E-01  8.00743998E-02 -9.82830599E-03  2.99602860E-01
 -9.19509109E-01  9.11472292E-05  5.80676237E-03 -3.22852030E-01  1.21162511E+00
 -1.69793657E-04 -1.08525309E-02  6.23870390E-02 -1.58654378E-03 -1.96798940E-04
  9.47263253E-06  5.87964135E-04 -3.13170495E-05 -1.30247924E-01  2.33354720E-02
 -1.30064548E-01  2.33594756E-02 -1.23504265E-01  2.42036774E-02 -7.88786557E-05
  7.16075082E-04 -4.15124727E-04 -3.83217536E-02  3.14202918E-02 -3.72678947E-03
  1.44017845E-03  1.01035865E-01 -8.29301301E-02 -1.00347279E-03  3.15757960E-02
 -3.05983653E-02  5.41151895E-02 -4.41474135E-02 -4.19472932E-02 -1.25688088E-01
  2.20954413E-02 -2.31415743E-01  4.04228542E-02  3.59605934E-01 -6.43343950E-02
  6.65442233E-05 -1.58400663E-03  5.22864553E-03 -4.79485171E-01  3.91150611E-01
  1.49027928E-03 -7.52098007E-03  9.54221946E-01 -7.78135571E-01 -3.26503354E-04
 -5.12862348E-02  5.13151410E-02 -5.27513856E-02  4.30839076E-02  6.92202430E-02
  1.72660126E-01  3.74259020E-02 -4.86855213E-01 -1.05108174E-01  3.16566072E-01
  6.78895051E-02  9.95216210E-05 -9.21711370E-04  5.17744840E-04 -3.11894925E-02
 -3.85588596E-02  4.76762582E-03 -1.83025886E-03  8.23503685E-02  1.01625274E-01
  1.26790112E-03 -3.69957518E-02  3.57543244E-02  4.41589450E-02  5.40987384E-02
 -3.58435849E-02 -3.42253556E-01  6.13329369E-02  2.79147303E-01 -4.88082148E-02
  5.99321218E-02 -1.02509068E-02 -8.53502584E-05  2.00231492E-03 -6.63046339E-03
 -3.91340936E-01 -4.79283504E-01 -1.88538836E-03  9.54389486E-03  7.78751117E-01
  9.53541366E-01  4.10562863E-04  5.98944223E-02 -5.99321944E-02 -4.30429483E-02
 -5.27924078E-02  5.92736027E-02  4.62840208E-01  9.99055168E-02 -8.40514669E-02
 -1.82603360E-02 -3.81809649E-01 -8.18927155E-02 -1.52636606E-05  1.77755090E-04
  6.28337925E-04 -1.15879867E-02  4.18825268E-01  3.04819571E-04 -2.81122574E-04
  3.74489693E-02 -1.34889532E+00  3.13598334E-05  1.49596343E-01 -1.49473136E-01
  2.15591189E-03 -7.68848261E-02 -8.45177130E-04  3.01044859E-01 -5.51764500E-02
 -6.23786825E-01  1.13919673E-01  3.22910259E-01 -5.92086945E-02  8.97577399E-05
  4.57996024E-04  3.35275577E-04  1.54205963E-02 -5.53131100E-01 -1.51044417E-03
 -5.66004128E-05 -4.33078262E-02  1.55790011E+00  1.49431983E-04  5.31751474E-02
 -5.31166295E-02 -2.21804652E-03  7.92557815E-02 -2.52887151E-04  6.42938604E-03
  3.42613683E-01  6.75247814E-03  3.67144684E-01 -1.22609126E-02 -7.09168488E-01
 -6.14168840E-07  2.29210151E-05  3.86118451E-05  4.18501961E-01  1.15731804E-02
 -3.58208181E-05 -7.33725486E-06 -1.34833867E+00 -3.74275207E-02  2.27117175E-06
  7.36047034E-04 -7.26380350E-04 -7.71815916E-02 -2.16784136E-03  1.72720335E-01
  5.46830322E-01 -1.00313714E-01 -1.26338425E-02  2.34586799E-03 -5.34191558E-01
  9.79833392E-02  5.31563417E-06  1.54864325E-05  3.12206965E-05 -5.53114671E-01
 -1.54031445E-02 -7.13653214E-05 -2.00846196E-05  1.55779264E+00  4.32485508E-02
  8.44281503E-06  2.15968214E-04 -2.14717897E-04  7.94558267E-02  2.22745922E-03
  6.13009765E-02  1.07406412E-02  6.21553702E-01 -1.05386848E-02 -6.07387856E-01
 -1.50938353E-04 -1.41296942E-02  2.19815481E-02 -4.17704672E-01 -8.17832693E-01
  1.49218640E-06 -1.07770103E-04  9.54899728E-01  1.85398818E+00 -3.07175609E-05
 -2.70903318E-04 -8.05998520E-02 -3.88017215E-02 -3.91687420E-02 -5.67511125E-06
 -1.14184326E-04  1.10586808E-05  2.77372409E-01  1.41998570E-01  2.76294034E-01
  1.42978707E-01  2.77320527E-01  1.42004020E-01 -5.22940702E-02  1.18748192E-01
 -3.07279506E-01 -3.83521639E-06 -2.20058603E-04 -7.97637507E-01  1.23267560E+00
  2.25375438E-05  8.67386589E-04 -1.86074061E-01  3.44361373E-02  3.43499238E-02
  3.37270779E-06  5.18808052E-05  3.27662257E-06 -1.28105736E-01 -1.48333725E-01
 -1.28113887E-01 -1.48350218E-01 -1.28306707E-01 -1.48863857E-01 -9.34491986E-06
  2.38279621E-04 -1.48537204E-04 -9.81196700E-01  3.66802898E-03 -4.71609402E-04
  1.41159038E-04  1.39575442E+00 -5.30495893E-03  6.55305906E-05 -2.67955417E-03
  2.72271439E-03 -9.80261142E-02  3.72655500E-04  1.18054600E-01  4.62309199E-01
 -1.24679396E+00  5.88631496E-03 -1.62491597E-02 -4.68674088E-01  1.26363937E+00
 -1.07285638E-05  8.18478004E-05  8.67739042E-05 -8.83105990E-02  3.71313390E-04
 -1.17881070E-04 -2.95234538E-05  1.23130899E-01 -3.72168936E-04  1.94523884E-05
 -6.31825567E-04  6.20436133E-04  2.84216481E-02 -1.19906548E-04  2.75439531E-02