
    -----------------------------------------------------------------------
          Psi4: An Open-Source Ab Initio Electronic Structure Package
                               Psi4 1.3.2 release

                         Git: Rev {HEAD} ecbda83 


    R. M. Parrish, L. A. Burns, D. G. A. Smith, A. C. Simmonett,
    A. E. DePrince III, E. G. Hohenstein, U. Bozkaya, A. Yu. Sokolov,
    R. Di Remigio, R. M. Richard, J. F. Gonthier, A. M. James,
    H. R. McAlexander, A. Kumar, M. Saitow, X. Wang, B. P. Pritchard,
    P. Verma, H. F. Schaefer III, K. Patkowski, R. A. King, E. F. Valeev,
    F. A. Evangelista, J. M. Turney, T. D. Crawford, and C. D. Sherrill,
    J. Chem. Theory Comput. 13(7) pp 3185--3197 (2017).
    (doi: 10.1021/acs.jctc.7b00174)


                         Additional Contributions by
    P. Kraus, H. Kruse, M. H. Lechner, M. C. Schieber, R. A. Shaw,
    A. Alenaizan, R. Galvelis, Z. L. Glick, S. Lehtola, and J. P. Misiewicz

    -----------------------------------------------------------------------


    Psi4 started on: Friday, 06 November 2020 01:35AM

    Process ID: 37277
    Host:       node37.bme.utexas.edu
    PSIDATADIR: /home/xy3866/psi4conda/share/psi4
    Memory:     500.0 MiB
    Threads:    8
    
  ==> Input File <==

--------------------------------------------------------------------------
#psi4
#
memory 32 gb

molecule  {
0 1
  N        2.6255493    -0.3100152     0.0008706
  C       -0.8748290    -0.5238240     0.0003100
  C        0.1478200     0.6200950     0.0003100
  C       -2.3044840     0.0081730    -0.0002990
  C        1.5293590     0.1288950    -0.0005060
  H       -0.7052620    -1.1537770     0.8794380
  H       -0.7047750    -1.1544660    -0.8781930
  H        0.0039960     1.2557980     0.8812230
  H        0.0030960     1.2567630    -0.8797780
  H       -2.4949090     0.6237750     0.8839850
  H       -2.4950800     0.6211070    -0.8863780
  H       -3.0255150    -0.8133870     0.0010390
units angstrom
no_reorient  #important for SAPT in psi4, default
symmetry c1  #important for SAPT in psi4, default
}

set PROPERTIES_ORIGIN ["COM"]
properties('MP2/aug-cc-pvtz', properties = ['dipole'])
--------------------------------------------------------------------------

  Memory set to  29.802 GiB by Python driver.
    SCF Algorithm Type (re)set to DF.

*** tstart() called on node37.bme.utexas.edu
*** at Fri Nov  6 01:35:58 2020

   => Loading Basis Set <=

    Name: AUG-CC-PVTZ
    Role: ORBITAL
    Keyword: BASIS
    atoms 1    entry N          line   281 file /home/xy3866/psi4conda/share/psi4/basis/aug-cc-pvtz.gbs 
    atoms 2-5  entry C          line   235 file /home/xy3866/psi4conda/share/psi4/basis/aug-cc-pvtz.gbs 
    atoms 6-12 entry H          line    36 file /home/xy3866/psi4conda/share/psi4/basis/aug-cc-pvtz.gbs 


         ---------------------------------------------------------
                                   SCF
               by Justin Turney, Rob Parrish, Andy Simmonett
                          and Daniel G. A. Smith
                              RHF Reference
                        8 Threads,  30517 MiB Core
         ---------------------------------------------------------

  ==> Geometry <==

    Molecular point group: c1
    Full point group: C1

    Geometry (in Angstrom), charge = 0, multiplicity = 1:

       Center              X                  Y                   Z               Mass       
    ------------   -----------------  -----------------  -----------------  -----------------
         N            2.491632524625    -0.296978165964     0.000706715219    14.003074004430
         C           -1.008745775375    -0.510786965964     0.000146115219    12.000000000000
         C            0.013903224625     0.633132034036     0.000146115219    12.000000000000
         C           -2.438400775375     0.021210034036    -0.000462884781    12.000000000000
         C            1.395442224625     0.141932034036    -0.000669884781    12.000000000000
         H           -0.839178775375    -1.140739965964     0.879274115219     1.007825032230
         H           -0.838691775375    -1.141428965964    -0.878356884781     1.007825032230
         H           -0.129920775375     1.268835034036     0.881059115219     1.007825032230
         H           -0.130820775375     1.269800034036    -0.879941884781     1.007825032230
         H           -2.628825775375     0.636812034036     0.883821115219     1.007825032230
         H           -2.628996775375     0.634144034036    -0.886541884781     1.007825032230
         H           -3.159431775375    -0.800349965964     0.000875115219     1.007825032230

  Running in c1 symmetry.

  Rotational constants: A =      0.78620  B =      0.07525  C =      0.07141 [cm^-1]
  Rotational constants: A =  23569.60399  B =   2255.97310  C =   2140.86863 [MHz]
  Nuclear repulsion =  153.621263102217739

  Charge       = 0
  Multiplicity = 1
  Electrons    = 38
  Nalpha       = 19
  Nbeta        = 19

  ==> Algorithm <==

  SCF Algorithm Type is DF.
  DIIS enabled.
  MOM disabled.
  Fractional occupation disabled.
  Guess Type is SAD.
  Energy threshold   = 1.00e-10
  Density threshold  = 1.00e-10
  Integral threshold = 0.00e+00

  ==> Primary Basis <==

  Basis Set: AUG-CC-PVTZ
    Blend: AUG-CC-PVTZ
    Number of shells: 133
    Number of basis function: 391
    Number of Cartesian functions: 450
    Spherical Harmonics?: true
    Max angular momentum: 3

   => Loading Basis Set <=

    Name: (AUG-CC-PVTZ AUX)
    Role: JKFIT
    Keyword: DF_BASIS_SCF
    atoms 1    entry N          line   224 file /home/xy3866/psi4conda/share/psi4/basis/aug-cc-pvtz-jkfit.gbs 
    atoms 2-5  entry C          line   162 file /home/xy3866/psi4conda/share/psi4/basis/aug-cc-pvtz-jkfit.gbs 
    atoms 6-12 entry H          line    70 file /home/xy3866/psi4conda/share/psi4/basis/aug-cc-pvtz-jkfit.gbs 

  ==> Pre-Iterations <==

   -------------------------------------------------------
    Irrep   Nso     Nmo     Nalpha   Nbeta   Ndocc  Nsocc
   -------------------------------------------------------
     A        391     391       0       0       0       0
   -------------------------------------------------------
    Total     391     391      19      19      19       0
   -------------------------------------------------------

  ==> Integral Setup <==

  DFHelper Memory: AOs need 0.985 GiB; user supplied 22.352 GiB. Using in-core AOs.

  ==> MemDFJK: Density-Fitted J/K Matrices <==

    J tasked:                   Yes
    K tasked:                   Yes
    wK tasked:                   No
    OpenMP threads:               8
    Memory [MiB]:             22888
    Algorithm:                 Core
    Schwarz Cutoff:           1E-12
    Mask sparsity (%):       1.9793
    Fitting Condition:        1E-10

   => Auxiliary Basis Set <=

  Basis Set: (AUG-CC-PVTZ AUX)
    Blend: AUG-CC-PVTZ-JKFIT
    Number of shells: 248
    Number of basis function: 842
    Number of Cartesian functions: 1040
    Spherical Harmonics?: true
    Max angular momentum: 4

  Minimum eigenvalue in the overlap matrix is 8.5708405774E-06.
  Using Symmetric Orthogonalization.

  SCF Guess: Superposition of Atomic Densities via on-the-fly atomic UHF.

  ==> Iterations <==

                           Total Energy        Delta E     RMS |[F,P]|

   @DF-RHF iter SAD:  -208.97487067944249   -2.08975e+02   0.00000e+00 
   @DF-RHF iter   1:  -209.87852246293815   -9.03652e-01   1.44610e-03 DIIS
   @DF-RHF iter   2:  -210.01556977780228   -1.37047e-01   8.54160e-04 DIIS
   @DF-RHF iter   3:  -210.06134208874073   -4.57723e-02   2.19378e-04 DIIS
   @DF-RHF iter   4:  -210.06538089874587   -4.03881e-03   9.10690e-05 DIIS
   @DF-RHF iter   5:  -210.06618931839438   -8.08420e-04   1.45197e-05 DIIS
   @DF-RHF iter   6:  -210.06621771219204   -2.83938e-05   4.75266e-06 DIIS
   @DF-RHF iter   7:  -210.06622076919041   -3.05700e-06   1.29576e-06 DIIS
   @DF-RHF iter   8:  -210.06622105077173   -2.81581e-07   4.25940e-07 DIIS
   @DF-RHF iter   9:  -210.06622110690984   -5.61381e-08   2.11728e-07 DIIS
   @DF-RHF iter  10:  -210.06622112713944   -2.02296e-08   1.04701e-07 DIIS
   @DF-RHF iter  11:  -210.06622113313472   -5.99528e-09   3.36004e-08 DIIS
   @DF-RHF iter  12:  -210.06622113362727   -4.92548e-10   6.60495e-09 DIIS
   @DF-RHF iter  13:  -210.06622113363892   -1.16529e-11   1.17881e-09 DIIS
   @DF-RHF iter  14:  -210.06622113363858    3.41061e-13   3.97526e-10 DIIS
   @DF-RHF iter  15:  -210.06622113363881   -2.27374e-13   1.29110e-10 DIIS
   @DF-RHF iter  16:  -210.06622113363838    4.26326e-13   3.37621e-11 DIIS
  Energy and wave function converged.


  ==> Post-Iterations <==

    Orbital Energies [Eh]
    ---------------------

    Doubly Occupied:                                                      

       1A    -15.575117     2A    -11.284864     3A    -11.281113  
       4A    -11.253855     5A    -11.236746     6A     -1.205716  
       7A     -1.101922     8A     -0.987420     9A     -0.846739  
      10A     -0.706178    11A     -0.672398    12A     -0.604642  
      13A     -0.584191    14A     -0.563868    15A     -0.530286  
      16A     -0.518794    17A     -0.506567    18A     -0.449386  
      19A     -0.446621  

    Virtual:                                                              

      20A      0.023281    21A      0.033762    22A      0.035559  
      23A      0.042344    24A      0.056957    25A      0.059355  
      26A      0.062935    27A      0.080023    28A      0.089496  
      29A      0.109361    30A      0.115440    31A      0.120689  
      32A      0.124236    33A      0.124509    34A      0.130791  
      35A      0.135683    36A      0.138762    37A      0.144492  
      38A      0.156363    39A      0.161582    40A      0.170141  
      41A      0.180004    42A      0.187820    43A      0.193581  
      44A      0.203809    45A      0.214265    46A      0.224598  
      47A      0.232127    48A      0.234872    49A      0.239741  
      50A      0.249618    51A      0.267968    52A      0.285048  
      53A      0.289562    54A      0.294124    55A      0.313737  
      56A      0.321986    57A      0.322400    58A      0.332954  
      59A      0.338873    60A      0.345149    61A      0.349055  
      62A      0.359563    63A      0.360272    64A      0.369722  
      65A      0.375087    66A      0.376225    67A      0.387621  
      68A      0.388746    69A      0.398319    70A      0.404568  
      71A      0.418678    72A      0.420945    73A      0.429382  
      74A      0.431742    75A      0.435427    76A      0.447120  
      77A      0.454492    78A      0.461465    79A      0.466675  
      80A      0.483223    81A      0.486529    82A      0.495342  
      83A      0.504870    84A      0.505985    85A      0.513797  
      86A      0.516937    87A      0.532796    88A      0.535955  
      89A      0.538354    90A      0.549797    91A      0.552879  
      92A      0.563772    93A      0.584934    94A      0.599820  
      95A      0.610468    96A      0.626095    97A      0.643019  
      98A      0.644190    99A      0.669065   100A      0.694539  
     101A      0.694946   102A      0.698115   103A      0.718599  
     104A      0.745544   105A      0.752535   106A      0.768481  
     107A      0.772094   108A      0.793017   109A      0.800952  
     110A      0.815346   111A      0.819391   112A      0.827592  
     113A      0.832780   114A      0.842404   115A      0.852619  
     116A      0.867166   117A      0.870842   118A      0.878109  
     119A      0.888643   120A      0.891730   121A      0.895794  
     122A      0.905653   123A      0.914639   124A      0.930453  
     125A      0.937890   126A      0.959289   127A      0.961037  
     128A      0.969304   129A      0.974050   130A      0.989848  
     131A      1.006647   132A      1.015840   133A      1.021855  
     134A      1.036351   135A      1.056703   136A      1.058807  
     137A      1.063157   138A      1.068951   139A      1.092129  
     140A      1.098572   141A      1.111730   142A      1.119371  
     143A      1.137329   144A      1.149954   145A      1.161389  
     146A      1.165266   147A      1.173758   148A      1.179940  
     149A      1.188249   150A      1.192864   151A      1.204927  
     152A      1.209165   153A      1.221150   154A      1.225512  
     155A      1.232590   156A      1.237363   157A      1.255655  
     158A      1.256011   159A      1.282922   160A      1.301037  
     161A      1.311055   162A      1.344857   163A      1.347147  
     164A      1.368516   165A      1.385522   166A      1.392595  
     167A      1.408480   168A      1.432842   169A      1.438183  
     170A      1.446859   171A      1.461117   172A      1.483580  
     173A      1.508753   174A      1.520428   175A      1.549539  
     176A      1.552103   177A      1.561445   178A      1.581277  
     179A      1.585482   180A      1.594401   181A      1.603067  
     182A      1.625581   183A      1.645848   184A      1.657950  
     185A      1.665540   186A      1.665626   187A      1.682880  
     188A      1.684339   189A      1.699304   190A      1.720312  
     191A      1.722679   192A      1.731813   193A      1.739936  
     194A      1.744345   195A      1.765092   196A      1.781307  
     197A      1.789681   198A      1.811861   199A      1.814352  
     200A      1.821706   201A      1.839790   202A      1.852266  
     203A      1.890753   204A      1.893530   205A      1.913655  
     206A      1.914478   207A      1.938596   208A      1.947793  
     209A      1.951565   210A      1.972432   211A      1.992968  
     212A      2.000461   213A      2.029569   214A      2.031388  
     215A      2.036797   216A      2.071220   217A      2.076495  
     218A      2.107245   219A      2.128304   220A      2.149028  
     221A      2.182380   222A      2.188529   223A      2.214310  
     224A      2.236403   225A      2.239934   226A      2.240796  
     227A      2.260532   228A      2.284762   229A      2.314283  
     230A      2.323582   231A      2.327803   232A      2.379395  
     233A      2.384486   234A      2.389771   235A      2.401411  
     236A      2.428055   237A      2.435740   238A      2.465434  
     239A      2.486997   240A      2.542019   241A      2.555101  
     242A      2.626600   243A      2.638533   244A      2.650619  
     245A      2.786601   246A      2.908583   247A      2.979500  
     248A      3.068749   249A      3.171286   250A      3.209888  
     251A      3.245604   252A      3.288182   253A      3.352099  
     254A      3.360537   255A      3.373869   256A      3.384740  
     257A      3.418721   258A      3.437362   259A      3.439411  
     260A      3.484840   261A      3.488432   262A      3.545628  
     263A      3.554525   264A      3.555122   265A      3.599313  
     266A      3.603875   267A      3.614833   268A      3.616573  
     269A      3.641612   270A      3.647969   271A      3.657813  
     272A      3.690217   273A      3.704441   274A      3.742905  
     275A      3.746211   276A      3.749095   277A      3.767690  
     278A      3.770098   279A      3.824897   280A      3.826601  
     281A      3.834997   282A      3.859234   283A      3.864592  
     284A      3.896510   285A      3.916979   286A      3.927690  
     287A      3.946005   288A      3.955816   289A      3.978455  
     290A      3.981636   291A      3.985429   292A      4.014658  
     293A      4.016955   294A      4.054385   295A      4.055539  
     296A      4.101748   297A      4.135703   298A      4.140173  
     299A      4.180577   300A      4.200377   301A      4.207620  
     302A      4.211570   303A      4.231763   304A      4.254400  
     305A      4.261887   306A      4.292496   307A      4.345083  
     308A      4.360562   309A      4.391012   310A      4.404405  
     311A      4.423142   312A      4.474730   313A      4.516266  
     314A      4.555819   315A      4.599229   316A      4.641259  
     317A      4.646644   318A      4.659103   319A      4.683041  
     320A      4.708231   321A      4.728175   322A      4.774440  
     323A      4.816390   324A      4.825533   325A      4.850984  
     326A      4.851677   327A      4.869372   328A      4.877468  
     329A      4.908565   330A      4.925856   331A      4.930214  
     332A      4.971736   333A      4.994584   334A      5.027315  
     335A      5.034078   336A      5.062069   337A      5.070657  
     338A      5.088936   339A      5.100122   340A      5.150977  
     341A      5.179586   342A      5.187229   343A      5.214340  
     344A      5.273986   345A      5.311046   346A      5.313626  
     347A      5.323770   348A      5.352817   349A      5.366877  
     350A      5.413617   351A      5.425244   352A      5.433496  
     353A      5.498666   354A      5.532149   355A      5.558818  
     356A      5.560736   357A      5.585766   358A      5.653986  
     359A      5.654929   360A      5.666137   361A      5.672690  
     362A      5.697396   363A      5.763917   364A      5.792983  
     365A      5.798984   366A      5.836825   367A      5.871169  
     368A      5.881730   369A      5.962218   370A      6.044146  
     371A      6.045131   372A      6.125387   373A      6.148561  
     374A      6.163677   375A      6.233639   376A      6.236614  
     377A      6.337846   378A      6.427675   379A      6.497649  
     380A      6.688985   381A      6.690964   382A      6.725659  
     383A      6.757530   384A      6.797279   385A      6.906573  
     386A      6.928598   387A     14.976693   388A     16.709721  
     389A     17.696736   390A     18.342969   391A     19.890669  

    Final Occupation by Irrep:
              A 
    DOCC [    19 ]

  @DF-RHF Final Energy:  -210.06622113363838

   => Energetics <=

    Nuclear Repulsion Energy =            153.6212631022177391
    One-Electron Energy =                -586.6621241202080910
    Two-Electron Energy =                 222.9746398843519444
    Total Energy =                       -210.0662211336383791

Computation Completed

*** tstop() called on node37.bme.utexas.edu at Fri Nov  6 01:36:07 2020
Module time:
	user time   =      56.66 seconds =       0.94 minutes
	system time =       4.67 seconds =       0.08 minutes
	total time  =          9 seconds =       0.15 minutes
Total time:
	user time   =      56.66 seconds =       0.94 minutes
	system time =       4.67 seconds =       0.08 minutes
	total time  =          9 seconds =       0.15 minutes
   => Loading Basis Set <=

    Name: (AUG-CC-PVTZ AUX)
    Role: RIFIT
    Keyword: DF_BASIS_MP2
    atoms 1    entry N          line   206 file /home/xy3866/psi4conda/share/psi4/basis/aug-cc-pvtz-ri.gbs 
    atoms 2-5  entry C          line   148 file /home/xy3866/psi4conda/share/psi4/basis/aug-cc-pvtz-ri.gbs 
    atoms 6-12 entry H          line    30 file /home/xy3866/psi4conda/share/psi4/basis/aug-cc-pvtz-ri.gbs 


*** tstart() called on node37.bme.utexas.edu
*** at Fri Nov  6 01:36:07 2020


  //>>>>>>>>>>>>>>>>>>>>>>>>>>>>>>>>>>>//
  //               DFMP2               //
  //<<<<<<<<<<<<<<<<<<<<<<<<<<<<<<<<<<<//

	 --------------------------------------------------------
	                          DF-MP2                         
	      2nd-Order Density-Fitted Moller-Plesset Theory     
	              RMP2 Wavefunction,   8 Threads             
	                                                         
	        Rob Parrish, Justin Turney, Andy Simmonett,      
	           Ed Hohenstein, and C. David Sherrill          
	 --------------------------------------------------------

   => Auxiliary Basis Set <=

  Basis Set: (AUG-CC-PVTZ AUX)
    Blend: AUG-CC-PVTZ-RI
    Number of shells: 238
    Number of basis function: 852
    Number of Cartesian functions: 1065
    Spherical Harmonics?: true
    Max angular momentum: 4

	 --------------------------------------------------------
	                 NBF =   391, NAUX =   852
	 --------------------------------------------------------
	   CLASS    FOCC     OCC    AOCC    AVIR     VIR    FVIR
	   PAIRS       0      19      19     372     372       0
	 --------------------------------------------------------

  DFHelper Memory: AOs need 0.985 GiB; user supplied 22.352 GiB. Using in-core AOs.


         ------------------------------------------------------------
                                     CPHF                           
                                  Rob Parrish                       
         ------------------------------------------------------------

  ==> Geometry <==

    Molecular point group: c1
    Full point group: C1

    Geometry (in Angstrom), charge = 0, multiplicity = 1:

       Center              X                  Y                   Z               Mass       
    ------------   -----------------  -----------------  -----------------  -----------------
         N            2.491632524625    -0.296978165964     0.000706715219    14.003074004430
         C           -1.008745775375    -0.510786965964     0.000146115219    12.000000000000
         C            0.013903224625     0.633132034036     0.000146115219    12.000000000000
         C           -2.438400775375     0.021210034036    -0.000462884781    12.000000000000
         C            1.395442224625     0.141932034036    -0.000669884781    12.000000000000
         H           -0.839178775375    -1.140739965964     0.879274115219     1.007825032230
         H           -0.838691775375    -1.141428965964    -0.878356884781     1.007825032230
         H           -0.129920775375     1.268835034036     0.881059115219     1.007825032230
         H           -0.130820775375     1.269800034036    -0.879941884781     1.007825032230
         H           -2.628825775375     0.636812034036     0.883821115219     1.007825032230
         H           -2.628996775375     0.634144034036    -0.886541884781     1.007825032230
         H           -3.159431775375    -0.800349965964     0.000875115219     1.007825032230

  Nuclear repulsion =  153.621263102217739
  Reference energy  = -210.066221133638379

  ==> Basis Set <==

  Basis Set: AUG-CC-PVTZ
    Blend: AUG-CC-PVTZ
    Number of shells: 133
    Number of basis function: 391
    Number of Cartesian functions: 450
    Spherical Harmonics?: true
    Max angular momentum: 3

  ==> CGRSolver (by Rob Parrish) <==

   Number of roots    =         1
   Preconditioning    =    JACOBI
   Convergence cutoff =     1E-06
   Maximum iterations =       100

  ==> CPHFRHamiltonian (by Rob Parrish) <== 

  ==> MemDFJK: Density-Fitted J/K Matrices <==

    J tasked:                   Yes
    K tasked:                   Yes
    wK tasked:                   No
    OpenMP threads:               8
    Memory [MiB]:             22888
    Algorithm:                 Core
    Schwarz Cutoff:           1E-12
    Mask sparsity (%):       1.9793
    Fitting Condition:        1E-10

   => Auxiliary Basis Set <=

  Basis Set: (AUG-CC-PVTZ AUX)
    Blend: AUG-CC-PVTZ-JKFIT
    Number of shells: 248
    Number of basis function: 842
    Number of Cartesian functions: 1040
    Spherical Harmonics?: true
    Max angular momentum: 4

  ==> CPHF Iterations <==

  => Iterations <=

             Iter  Converged  Remaining    Residual
  CGR           1          0          1   8.713E-02
  CGR           2          0          1   2.984E-02
  CGR           3          0          1   7.927E-03
  CGR           4          0          1   2.159E-03
  CGR           5          0          1   7.594E-04
  CGR           6          0          1   2.531E-04
  CGR           7          0          1   1.049E-04
  CGR           8          0          1   5.113E-05
  CGR           9          0          1   1.525E-05
  CGR          10          0          1   4.466E-06
  CGR          11          0          1   1.196E-06
  CGR          12          1          0   4.195E-07

    CGRSolver converged.

	-----------------------------------------------------------
	 ==================> DF-MP2 Energies <==================== 
	-----------------------------------------------------------
	 Reference Energy          =    -210.0662211336383791 [Eh]
	 Singles Energy            =      -0.0000000000000000 [Eh]
	 Same-Spin Energy          =      -0.2182844978586072 [Eh]
	 Opposite-Spin Energy      =      -0.7532562508312820 [Eh]
	 Correlation Energy        =      -0.9715407486898893 [Eh]
	 Total Energy              =    -211.0377618823282546 [Eh]
	-----------------------------------------------------------
	 ================> DF-SCS-MP2 Energies <================== 
	-----------------------------------------------------------
	 SCS Same-Spin Scale       =       0.3333333333333333 [-]
	 SCS Opposite-Spin Scale   =       1.2000000000000000 [-]
	 SCS Same-Spin Energy      =      -0.0727614992862024 [Eh]
	 SCS Opposite-Spin Energy  =      -0.9039075009975384 [Eh]
	 SCS Correlation Energy    =      -0.9766690002837408 [Eh]
	 SCS Total Energy          =    -211.0428901339221284 [Eh]
	-----------------------------------------------------------



Properties will be evaluated at  -0.000000,  -0.000000,  -0.000000 [a0]

Properties computed using the MP2 density matrix

  Nuclear Dipole Moment: [e a0]
     X:    -9.7155      Y:     0.6825      Z:     0.0002

  Electronic Dipole Moment: [e a0]
     X:     8.1354      Y:    -0.2423      Z:    -0.0005

  Dipole Moment: [e a0]
     X:    -1.5801      Y:     0.4401      Z:    -0.0003     Total:     1.6403

  Dipole Moment: [D]
     X:    -4.0162      Y:     1.1187      Z:    -0.0008     Total:     4.1691


*** tstop() called on node37.bme.utexas.edu at Fri Nov  6 01:36:35 2020
Module time:
	user time   =     173.19 seconds =       2.89 minutes
	system time =      11.30 seconds =       0.19 minutes
	total time  =         28 seconds =       0.47 minutes
Total time:
	user time   =     230.37 seconds =       3.84 minutes
	system time =      16.01 seconds =       0.27 minutes
	total time  =         37 seconds =       0.62 minutes

    Psi4 stopped on: Friday, 06 November 2020 01:36AM
    Psi4 wall time for execution: 0:00:37.98

*** Psi4 exiting successfully. Buy a developer a beer!
