
    -----------------------------------------------------------------------
          Psi4: An Open-Source Ab Initio Electronic Structure Package
                               Psi4 1.3.2 release

                         Git: Rev {HEAD} ecbda83 


    R. M. Parrish, L. A. Burns, D. G. A. Smith, A. C. Simmonett,
    A. E. DePrince III, E. G. Hohenstein, U. Bozkaya, A. Yu. Sokolov,
    R. Di Remigio, R. M. Richard, J. F. Gonthier, A. M. James,
    H. R. McAlexander, A. Kumar, M. Saitow, X. Wang, B. P. Pritchard,
    P. Verma, H. F. Schaefer III, K. Patkowski, R. A. King, E. F. Valeev,
    F. A. Evangelista, J. M. Turney, T. D. Crawford, and C. D. Sherrill,
    J. Chem. Theory Comput. 13(7) pp 3185--3197 (2017).
    (doi: 10.1021/acs.jctc.7b00174)


                         Additional Contributions by
    P. Kraus, H. Kruse, M. H. Lechner, M. C. Schieber, R. A. Shaw,
    A. Alenaizan, R. Galvelis, Z. L. Glick, S. Lehtola, and J. P. Misiewicz

    -----------------------------------------------------------------------


    Psi4 started on: Friday, 06 November 2020 01:44AM

    Process ID: 37963
    Host:       node37.bme.utexas.edu
    PSIDATADIR: /home/xy3866/psi4conda/share/psi4
    Memory:     500.0 MiB
    Threads:    8
    
  ==> Input File <==

--------------------------------------------------------------------------
#psi4
#
memory 32 gb

molecule  {
0 1
  N        2.6330360    -0.2908360    -0.0000330
  C       -0.7496547    -0.6244534     0.0002136
  C        0.1478200     0.6200950     0.0003100
  C       -2.3044840     0.0081730    -0.0002990
  C        1.5293590     0.1288950    -0.0005060
  H       -0.7052620    -1.1537770     0.8794380
  H       -0.7047750    -1.1544660    -0.8781930
  H        0.0039960     1.2557980     0.8812230
  H        0.0030960     1.2567630    -0.8797780
  H       -2.4949090     0.6237750     0.8839850
  H       -2.4950800     0.6211070    -0.8863780
  H       -3.0255150    -0.8133870     0.0010390
units angstrom
no_reorient  #important for SAPT in psi4, default
symmetry c1  #important for SAPT in psi4, default
}

set PROPERTIES_ORIGIN ["COM"]
properties('MP2/aug-cc-pvtz', properties = ['dipole'])
--------------------------------------------------------------------------

  Memory set to  29.802 GiB by Python driver.
    SCF Algorithm Type (re)set to DF.

*** tstart() called on node37.bme.utexas.edu
*** at Fri Nov  6 01:44:50 2020

   => Loading Basis Set <=

    Name: AUG-CC-PVTZ
    Role: ORBITAL
    Keyword: BASIS
    atoms 1    entry N          line   281 file /home/xy3866/psi4conda/share/psi4/basis/aug-cc-pvtz.gbs 
    atoms 2-5  entry C          line   235 file /home/xy3866/psi4conda/share/psi4/basis/aug-cc-pvtz.gbs 
    atoms 6-12 entry H          line    36 file /home/xy3866/psi4conda/share/psi4/basis/aug-cc-pvtz.gbs 


         ---------------------------------------------------------
                                   SCF
               by Justin Turney, Rob Parrish, Andy Simmonett
                          and Daniel G. A. Smith
                              RHF Reference
                        8 Threads,  30517 MiB Core
         ---------------------------------------------------------

  ==> Geometry <==

    Molecular point group: c1
    Full point group: C1

    Geometry (in Angstrom), charge = 0, multiplicity = 1:

       Center              X                  Y                   Z               Mass       
    ------------   -----------------  -----------------  -----------------  -----------------
         N            2.475849915893    -0.264201886797     0.000003092164    14.003074004430
         C           -0.906840784107    -0.597819286797     0.000249692164    12.000000000000
         C           -0.009366084107     0.646729113203     0.000346092164    12.000000000000
         C           -2.461670084107     0.034807113203    -0.000262907836    12.000000000000
         C            1.372172915893     0.155529113203    -0.000469907836    12.000000000000
         H           -0.862448084107    -1.127142886797     0.879474092164     1.007825032230
         H           -0.861961084107    -1.127831886797    -0.878156907836     1.007825032230
         H           -0.153190084107     1.282432113203     0.881259092164     1.007825032230
         H           -0.154090084107     1.283397113203    -0.879741907836     1.007825032230
         H           -2.652095084107     0.650409113203     0.884021092164     1.007825032230
         H           -2.652266084107     0.647741113203    -0.886341907836     1.007825032230
         H           -3.182701084107    -0.786752886797     0.001075092164     1.007825032230

  Running in c1 symmetry.

  Rotational constants: A =      0.74460  B =      0.07605  C =      0.07177 [cm^-1]
  Rotational constants: A =  22322.40681  B =   2280.06086  C =   2151.51975 [MHz]
  Nuclear repulsion =  153.033150898816643

  Charge       = 0
  Multiplicity = 1
  Electrons    = 38
  Nalpha       = 19
  Nbeta        = 19

  ==> Algorithm <==

  SCF Algorithm Type is DF.
  DIIS enabled.
  MOM disabled.
  Fractional occupation disabled.
  Guess Type is SAD.
  Energy threshold   = 1.00e-10
  Density threshold  = 1.00e-10
  Integral threshold = 0.00e+00

  ==> Primary Basis <==

  Basis Set: AUG-CC-PVTZ
    Blend: AUG-CC-PVTZ
    Number of shells: 133
    Number of basis function: 391
    Number of Cartesian functions: 450
    Spherical Harmonics?: true
    Max angular momentum: 3

   => Loading Basis Set <=

    Name: (AUG-CC-PVTZ AUX)
    Role: JKFIT
    Keyword: DF_BASIS_SCF
    atoms 1    entry N          line   224 file /home/xy3866/psi4conda/share/psi4/basis/aug-cc-pvtz-jkfit.gbs 
    atoms 2-5  entry C          line   162 file /home/xy3866/psi4conda/share/psi4/basis/aug-cc-pvtz-jkfit.gbs 
    atoms 6-12 entry H          line    70 file /home/xy3866/psi4conda/share/psi4/basis/aug-cc-pvtz-jkfit.gbs 

  ==> Pre-Iterations <==

   -------------------------------------------------------
    Irrep   Nso     Nmo     Nalpha   Nbeta   Ndocc  Nsocc
   -------------------------------------------------------
     A        391     391       0       0       0       0
   -------------------------------------------------------
    Total     391     391      19      19      19       0
   -------------------------------------------------------

  ==> Integral Setup <==

  DFHelper Memory: AOs need 0.985 GiB; user supplied 22.352 GiB. Using in-core AOs.

  ==> MemDFJK: Density-Fitted J/K Matrices <==

    J tasked:                   Yes
    K tasked:                   Yes
    wK tasked:                   No
    OpenMP threads:               8
    Memory [MiB]:             22888
    Algorithm:                 Core
    Schwarz Cutoff:           1E-12
    Mask sparsity (%):       1.9715
    Fitting Condition:        1E-10

   => Auxiliary Basis Set <=

  Basis Set: (AUG-CC-PVTZ AUX)
    Blend: AUG-CC-PVTZ-JKFIT
    Number of shells: 248
    Number of basis function: 842
    Number of Cartesian functions: 1040
    Spherical Harmonics?: true
    Max angular momentum: 4

  Minimum eigenvalue in the overlap matrix is 9.3881011590E-06.
  Using Symmetric Orthogonalization.

  SCF Guess: Superposition of Atomic Densities via on-the-fly atomic UHF.

  ==> Iterations <==

                           Total Energy        Delta E     RMS |[F,P]|

   @DF-RHF iter SAD:  -208.84829072683985   -2.08848e+02   0.00000e+00 
   @DF-RHF iter   1:  -209.87035288427541   -1.02206e+00   1.39252e-03 DIIS
   @DF-RHF iter   2:  -209.99896528429059   -1.28612e-01   8.15550e-04 DIIS
   @DF-RHF iter   3:  -210.04005598817463   -4.10907e-02   2.21797e-04 DIIS
   @DF-RHF iter   4:  -210.04415081042833   -4.09482e-03   8.52149e-05 DIIS
   @DF-RHF iter   5:  -210.04488142647099   -7.30616e-04   1.31977e-05 DIIS
   @DF-RHF iter   6:  -210.04490829543801   -2.68690e-05   4.64010e-06 DIIS
   @DF-RHF iter   7:  -210.04491141861101   -3.12317e-06   1.44318e-06 DIIS
   @DF-RHF iter   8:  -210.04491188547715   -4.66866e-07   5.47342e-07 DIIS
   @DF-RHF iter   9:  -210.04491201037843   -1.24901e-07   2.76361e-07 DIIS
   @DF-RHF iter  10:  -210.04491204925409   -3.88757e-08   1.22386e-07 DIIS
   @DF-RHF iter  11:  -210.04491205571634   -6.46224e-09   3.58709e-08 DIIS
   @DF-RHF iter  12:  -210.04491205617708   -4.60744e-10   7.00153e-09 DIIS
   @DF-RHF iter  13:  -210.04491205618856   -1.14824e-11   1.00514e-09 DIIS
   @DF-RHF iter  14:  -210.04491205618871   -1.42109e-13   2.59166e-10 DIIS
   @DF-RHF iter  15:  -210.04491205618851    1.98952e-13   7.83014e-11 DIIS
  Energy and wave function converged.


  ==> Post-Iterations <==

    Orbital Energies [Eh]
    ---------------------

    Doubly Occupied:                                                      

       1A    -15.571862     2A    -11.286762     3A    -11.277951  
       4A    -11.251600     5A    -11.240589     6A     -1.204011  
       7A     -1.095822     8A     -0.970807     9A     -0.862972  
      10A     -0.700839    11A     -0.684251    12A     -0.604599  
      13A     -0.584338    14A     -0.556997    15A     -0.536689  
      16A     -0.533092    17A     -0.484542    18A     -0.448029  
      19A     -0.438150  

    Virtual:                                                              

      20A      0.023267    21A      0.033816    22A      0.035486  
      23A      0.042532    24A      0.055593    25A      0.059374  
      26A      0.062821    27A      0.080120    28A      0.089561  
      29A      0.109862    30A      0.115998    31A      0.120934  
      32A      0.122650    33A      0.124301    34A      0.131480  
      35A      0.136342    36A      0.139915    37A      0.144579  
      38A      0.155636    39A      0.161562    40A      0.170035  
      41A      0.176885    42A      0.185548    43A      0.193286  
      44A      0.201693    45A      0.214738    46A      0.224758  
      47A      0.233848    48A      0.234854    49A      0.241246  
      50A      0.249785    51A      0.265295    52A      0.285722  
      53A      0.294098    54A      0.294117    55A      0.305510  
      56A      0.318519    57A      0.323541    58A      0.331918  
      59A      0.335693    60A      0.347231    61A      0.347690  
      62A      0.355452    63A      0.358716    64A      0.368459  
      65A      0.374320    66A      0.375755    67A      0.383063  
      68A      0.385856    69A      0.399392    70A      0.404145  
      71A      0.414597    72A      0.419347    73A      0.430827  
      74A      0.432955    75A      0.438944    76A      0.441990  
      77A      0.451948    78A      0.463272    79A      0.466647  
      80A      0.474274    81A      0.485202    82A      0.491234  
      83A      0.501284    84A      0.506892    85A      0.508318  
      86A      0.515955    87A      0.527004    88A      0.532823  
      89A      0.538715    90A      0.543836    91A      0.554466  
      92A      0.556543    93A      0.589449    94A      0.598478  
      95A      0.608165    96A      0.631690    97A      0.635428  
      98A      0.638332    99A      0.653873   100A      0.692550  
     101A      0.698892   102A      0.717539   103A      0.718657  
     104A      0.748269   105A      0.750944   106A      0.768416  
     107A      0.770450   108A      0.789196   109A      0.805792  
     110A      0.817498   111A      0.823095   112A      0.823296  
     113A      0.833803   114A      0.839568   115A      0.854473  
     116A      0.858819   117A      0.865606   118A      0.885167  
     119A      0.886554   120A      0.888496   121A      0.888927  
     122A      0.892534   123A      0.921989   124A      0.927387  
     125A      0.950054   126A      0.962563   127A      0.962738  
     128A      0.968501   129A      0.978880   130A      0.983708  
     131A      0.995311   132A      1.003074   133A      1.017863  
     134A      1.034668   135A      1.062471   136A      1.063188  
     137A      1.066281   138A      1.070838   139A      1.093195  
     140A      1.104362   141A      1.111928   142A      1.123061  
     143A      1.128499   144A      1.146015   145A      1.155381  
     146A      1.170770   147A      1.172687   148A      1.177173  
     149A      1.189273   150A      1.197566   151A      1.200278  
     152A      1.215271   153A      1.224263   154A      1.230118  
     155A      1.232614   156A      1.236173   157A      1.252330  
     158A      1.263914   159A      1.284375   160A      1.304699  
     161A      1.319693   162A      1.335616   163A      1.351115  
     164A      1.371212   165A      1.381647   166A      1.395110  
     167A      1.406562   168A      1.431503   169A      1.436703  
     170A      1.437886   171A      1.456619   172A      1.479323  
     173A      1.509256   174A      1.510477   175A      1.543076  
     176A      1.544181   177A      1.565607   178A      1.572945  
     179A      1.575810   180A      1.595347   181A      1.603223  
     182A      1.608444   183A      1.632937   184A      1.644157  
     185A      1.651460   186A      1.659438   187A      1.675689  
     188A      1.688208   189A      1.688417   190A      1.701300  
     191A      1.715149   192A      1.733516   193A      1.735783  
     194A      1.746689   195A      1.759224   196A      1.782799  
     197A      1.789302   198A      1.810722   199A      1.811978  
     200A      1.818834   201A      1.833593   202A      1.862947  
     203A      1.887733   204A      1.892539   205A      1.903230  
     206A      1.924912   207A      1.943113   208A      1.955994  
     209A      1.960629   210A      1.967035   211A      1.981030  
     212A      2.000595   213A      2.008475   214A      2.028179  
     215A      2.038443   216A      2.063712   217A      2.101111  
     218A      2.107106   219A      2.134976   220A      2.135726  
     221A      2.150977   222A      2.156157   223A      2.201257  
     224A      2.220912   225A      2.235979   226A      2.252071  
     227A      2.264170   228A      2.276812   229A      2.305643  
     230A      2.318505   231A      2.355135   232A      2.366818  
     233A      2.390003   234A      2.401380   235A      2.403161  
     236A      2.414283   237A      2.432378   238A      2.469506  
     239A      2.493768   240A      2.540562   241A      2.549537  
     242A      2.626160   243A      2.626653   244A      2.659410  
     245A      2.716738   246A      2.782987   247A      2.945261  
     248A      3.070359   249A      3.121846   250A      3.197636  
     251A      3.225375   252A      3.311989   253A      3.339214  
     254A      3.349511   255A      3.356197   256A      3.377972  
     257A      3.414930   258A      3.442340   259A      3.464261  
     260A      3.472100   261A      3.497208   262A      3.509113  
     263A      3.534196   264A      3.550619   265A      3.585001  
     266A      3.614015   267A      3.619877   268A      3.634056  
     269A      3.643348   270A      3.678250   271A      3.680305  
     272A      3.684316   273A      3.693120   274A      3.704769  
     275A      3.711376   276A      3.721598   277A      3.742758  
     278A      3.749062   279A      3.792884   280A      3.800018  
     281A      3.814140   282A      3.853665   283A      3.879040  
     284A      3.881733   285A      3.900575   286A      3.903818  
     287A      3.937884   288A      3.944589   289A      3.960093  
     290A      3.977591   291A      3.990062   292A      4.002936  
     293A      4.033833   294A      4.057912   295A      4.095660  
     296A      4.108565   297A      4.122045   298A      4.131866  
     299A      4.165754   300A      4.184229   301A      4.192864  
     302A      4.205533   303A      4.216669   304A      4.239981  
     305A      4.243910   306A      4.285985   307A      4.357343  
     308A      4.384543   309A      4.397700   310A      4.425863  
     311A      4.432100   312A      4.455886   313A      4.496552  
     314A      4.567343   315A      4.608072   316A      4.610098  
     317A      4.634155   318A      4.642550   319A      4.662083  
     320A      4.672548   321A      4.693103   322A      4.785976  
     323A      4.805909   324A      4.827039   325A      4.833724  
     326A      4.869386   327A      4.885763   328A      4.892961  
     329A      4.904768   330A      4.910475   331A      4.922389  
     332A      4.963966   333A      5.027866   334A      5.031639  
     335A      5.031890   336A      5.039897   337A      5.052724  
     338A      5.136485   339A      5.150951   340A      5.159476  
     341A      5.183722   342A      5.205974   343A      5.221761  
     344A      5.232739   345A      5.265802   346A      5.270268  
     347A      5.323362   348A      5.342461   349A      5.373601  
     350A      5.384902   351A      5.421640   352A      5.478231  
     353A      5.518945   354A      5.531481   355A      5.535253  
     356A      5.578560   357A      5.586087   358A      5.618720  
     359A      5.668140   360A      5.671252   361A      5.688723  
     362A      5.702450   363A      5.769678   364A      5.822434  
     365A      5.851127   366A      5.857580   367A      5.880653  
     368A      5.934514   369A      5.959739   370A      6.006796  
     371A      6.043636   372A      6.093650   373A      6.183050  
     374A      6.187713   375A      6.240611   376A      6.249955  
     377A      6.403178   378A      6.484204   379A      6.569631  
     380A      6.680555   381A      6.711231   382A      6.720358  
     383A      6.753278   384A      6.797891   385A      6.846930  
     386A      6.938686   387A     14.873309   388A     16.667898  
     389A     17.401215   390A     18.388596   391A     20.029447  

    Final Occupation by Irrep:
              A 
    DOCC [    19 ]

  @DF-RHF Final Energy:  -210.04491205618851

   => Energetics <=

    Nuclear Repulsion Energy =            153.0331508988166433
    One-Electron Energy =                -585.4883220111430546
    Two-Electron Energy =                 222.4102590561379031
    Total Energy =                       -210.0449120561885081

Computation Completed

*** tstop() called on node37.bme.utexas.edu at Fri Nov  6 01:45:00 2020
Module time:
	user time   =      60.47 seconds =       1.01 minutes
	system time =       4.92 seconds =       0.08 minutes
	total time  =         10 seconds =       0.17 minutes
Total time:
	user time   =      60.47 seconds =       1.01 minutes
	system time =       4.92 seconds =       0.08 minutes
	total time  =         10 seconds =       0.17 minutes
   => Loading Basis Set <=

    Name: (AUG-CC-PVTZ AUX)
    Role: RIFIT
    Keyword: DF_BASIS_MP2
    atoms 1    entry N          line   206 file /home/xy3866/psi4conda/share/psi4/basis/aug-cc-pvtz-ri.gbs 
    atoms 2-5  entry C          line   148 file /home/xy3866/psi4conda/share/psi4/basis/aug-cc-pvtz-ri.gbs 
    atoms 6-12 entry H          line    30 file /home/xy3866/psi4conda/share/psi4/basis/aug-cc-pvtz-ri.gbs 


*** tstart() called on node37.bme.utexas.edu
*** at Fri Nov  6 01:45:00 2020


  //>>>>>>>>>>>>>>>>>>>>>>>>>>>>>>>>>>>//
  //               DFMP2               //
  //<<<<<<<<<<<<<<<<<<<<<<<<<<<<<<<<<<<//

	 --------------------------------------------------------
	                          DF-MP2                         
	      2nd-Order Density-Fitted Moller-Plesset Theory     
	              RMP2 Wavefunction,   8 Threads             
	                                                         
	        Rob Parrish, Justin Turney, Andy Simmonett,      
	           Ed Hohenstein, and C. David Sherrill          
	 --------------------------------------------------------

   => Auxiliary Basis Set <=

  Basis Set: (AUG-CC-PVTZ AUX)
    Blend: AUG-CC-PVTZ-RI
    Number of shells: 238
    Number of basis function: 852
    Number of Cartesian functions: 1065
    Spherical Harmonics?: true
    Max angular momentum: 4

	 --------------------------------------------------------
	                 NBF =   391, NAUX =   852
	 --------------------------------------------------------
	   CLASS    FOCC     OCC    AOCC    AVIR     VIR    FVIR
	   PAIRS       0      19      19     372     372       0
	 --------------------------------------------------------

  DFHelper Memory: AOs need 0.985 GiB; user supplied 22.352 GiB. Using in-core AOs.


         ------------------------------------------------------------
                                     CPHF                           
                                  Rob Parrish                       
         ------------------------------------------------------------

  ==> Geometry <==

    Molecular point group: c1
    Full point group: C1

    Geometry (in Angstrom), charge = 0, multiplicity = 1:

       Center              X                  Y                   Z               Mass       
    ------------   -----------------  -----------------  -----------------  -----------------
         N            2.475849915893    -0.264201886797     0.000003092164    14.003074004430
         C           -0.906840784107    -0.597819286797     0.000249692164    12.000000000000
         C           -0.009366084107     0.646729113203     0.000346092164    12.000000000000
         C           -2.461670084107     0.034807113203    -0.000262907836    12.000000000000
         C            1.372172915893     0.155529113203    -0.000469907836    12.000000000000
         H           -0.862448084107    -1.127142886797     0.879474092164     1.007825032230
         H           -0.861961084107    -1.127831886797    -0.878156907836     1.007825032230
         H           -0.153190084107     1.282432113203     0.881259092164     1.007825032230
         H           -0.154090084107     1.283397113203    -0.879741907836     1.007825032230
         H           -2.652095084107     0.650409113203     0.884021092164     1.007825032230
         H           -2.652266084107     0.647741113203    -0.886341907836     1.007825032230
         H           -3.182701084107    -0.786752886797     0.001075092164     1.007825032230

  Nuclear repulsion =  153.033150898816643
  Reference energy  = -210.044912056188508

  ==> Basis Set <==

  Basis Set: AUG-CC-PVTZ
    Blend: AUG-CC-PVTZ
    Number of shells: 133
    Number of basis function: 391
    Number of Cartesian functions: 450
    Spherical Harmonics?: true
    Max angular momentum: 3

  ==> CGRSolver (by Rob Parrish) <==

   Number of roots    =         1
   Preconditioning    =    JACOBI
   Convergence cutoff =     1E-06
   Maximum iterations =       100

  ==> CPHFRHamiltonian (by Rob Parrish) <== 

  ==> MemDFJK: Density-Fitted J/K Matrices <==

    J tasked:                   Yes
    K tasked:                   Yes
    wK tasked:                   No
    OpenMP threads:               8
    Memory [MiB]:             22888
    Algorithm:                 Core
    Schwarz Cutoff:           1E-12
    Mask sparsity (%):       1.9715
    Fitting Condition:        1E-10

   => Auxiliary Basis Set <=

  Basis Set: (AUG-CC-PVTZ AUX)
    Blend: AUG-CC-PVTZ-JKFIT
    Number of shells: 248
    Number of basis function: 842
    Number of Cartesian functions: 1040
    Spherical Harmonics?: true
    Max angular momentum: 4

  ==> CPHF Iterations <==

  => Iterations <=

             Iter  Converged  Remaining    Residual
  CGR           1          0          1   8.679E-02
  CGR           2          0          1   3.027E-02
  CGR           3          0          1   8.188E-03
  CGR           4          0          1   2.617E-03
  CGR           5          0          1   1.209E-03
  CGR           6          0          1   7.353E-04
  CGR           7          0          1   2.063E-04
  CGR           8          0          1   5.918E-05
  CGR           9          0          1   1.586E-05
  CGR          10          0          1   4.762E-06
  CGR          11          0          1   1.104E-06
  CGR          12          1          0   3.567E-07

    CGRSolver converged.

	-----------------------------------------------------------
	 ==================> DF-MP2 Energies <==================== 
	-----------------------------------------------------------
	 Reference Energy          =    -210.0449120561885081 [Eh]
	 Singles Energy            =      -0.0000000000000000 [Eh]
	 Same-Spin Energy          =      -0.2182468709604273 [Eh]
	 Opposite-Spin Energy      =      -0.7540013946737520 [Eh]
	 Correlation Energy        =      -0.9722482656341793 [Eh]
	 Total Energy              =    -211.0171603218227006 [Eh]
	-----------------------------------------------------------
	 ================> DF-SCS-MP2 Energies <================== 
	-----------------------------------------------------------
	 SCS Same-Spin Scale       =       0.3333333333333333 [-]
	 SCS Opposite-Spin Scale   =       1.2000000000000000 [-]
	 SCS Same-Spin Energy      =      -0.0727489569868091 [Eh]
	 SCS Opposite-Spin Energy  =      -0.9048016736085024 [Eh]
	 SCS Correlation Energy    =      -0.9775506305953114 [Eh]
	 SCS Total Energy          =    -211.0224626867838253 [Eh]
	-----------------------------------------------------------



Properties will be evaluated at  -0.000000,   0.000000,  -0.000000 [a0]

Properties computed using the MP2 density matrix

  Nuclear Dipole Moment: [e a0]
     X:    -9.8682      Y:     0.7716      Z:     0.0015

  Electronic Dipole Moment: [e a0]
     X:     8.2896      Y:    -0.3387      Z:    -0.0013

  Dipole Moment: [e a0]
     X:    -1.5786      Y:     0.4329      Z:     0.0002     Total:     1.6369

  Dipole Moment: [D]
     X:    -4.0124      Y:     1.1002      Z:     0.0006     Total:     4.1605


*** tstop() called on node37.bme.utexas.edu at Fri Nov  6 01:45:28 2020
Module time:
	user time   =     167.24 seconds =       2.79 minutes
	system time =      10.42 seconds =       0.17 minutes
	total time  =         28 seconds =       0.47 minutes
Total time:
	user time   =     228.15 seconds =       3.80 minutes
	system time =      15.37 seconds =       0.26 minutes
	total time  =         38 seconds =       0.63 minutes

    Psi4 stopped on: Friday, 06 November 2020 01:45AM
    Psi4 wall time for execution: 0:00:38.14

*** Psi4 exiting successfully. Buy a developer a beer!
