
    -----------------------------------------------------------------------
          Psi4: An Open-Source Ab Initio Electronic Structure Package
                               Psi4 1.3.2 release

                         Git: Rev {HEAD} ecbda83 


    R. M. Parrish, L. A. Burns, D. G. A. Smith, A. C. Simmonett,
    A. E. DePrince III, E. G. Hohenstein, U. Bozkaya, A. Yu. Sokolov,
    R. Di Remigio, R. M. Richard, J. F. Gonthier, A. M. James,
    H. R. McAlexander, A. Kumar, M. Saitow, X. Wang, B. P. Pritchard,
    P. Verma, H. F. Schaefer III, K. Patkowski, R. A. King, E. F. Valeev,
    F. A. Evangelista, J. M. Turney, T. D. Crawford, and C. D. Sherrill,
    J. Chem. Theory Comput. 13(7) pp 3185--3197 (2017).
    (doi: 10.1021/acs.jctc.7b00174)


                         Additional Contributions by
    P. Kraus, H. Kruse, M. H. Lechner, M. C. Schieber, R. A. Shaw,
    A. Alenaizan, R. Galvelis, Z. L. Glick, S. Lehtola, and J. P. Misiewicz

    -----------------------------------------------------------------------


    Psi4 started on: Tuesday, 03 November 2020 07:47PM

    Process ID: 36015
    Host:       node142.bme.utexas.edu
    PSIDATADIR: /home/xy3866/psi4conda/share/psi4
    Memory:     500.0 MiB
    Threads:    8
    
  ==> Input File <==

--------------------------------------------------------------------------
#psi4
#
memory 32 gb

molecule  {
0 1
  C        2.5428260    -0.3261640     0.0004000
  H        2.5782804    -0.9540885     0.8961817
  H        2.5787950    -0.9712350    -0.8831070
  H        3.4433220     0.2951360    -0.0003880
  C        1.2758620     0.5250290    -0.0000810
  H        1.2742200     1.1832430    -0.8780540
  H        1.2734520     1.1829250     0.8781380
  C        0.0000050    -0.3135590    -0.0008010
  H       -0.0000170    -0.9720800    -0.8802820
  H        0.0000540    -0.9738100     0.8773920
  C       -1.2758600     0.5250110     0.0000320
  H       -1.2742070     1.1833710    -0.8778340
  H       -1.2734650     1.1827700     0.8783550
  C       -2.5428310    -0.3261580     0.0003500
  H       -2.5791270    -0.9698370     0.8848460
  H       -3.4433120     0.2951650    -0.0002120
  H       -2.5788740    -0.9709940    -0.8833260
units angstrom
no_reorient  #important for SAPT in psi4, default
symmetry c1  #important for SAPT in psi4, default
}

set PROPERTIES_ORIGIN ["COM"]
properties('MP2/aug-cc-pvtz', properties = ['dipole'])
--------------------------------------------------------------------------

  Memory set to  29.802 GiB by Python driver.
    SCF Algorithm Type (re)set to DF.

*** tstart() called on node142.bme.utexas.edu
*** at Tue Nov  3 19:47:17 2020

   => Loading Basis Set <=

    Name: AUG-CC-PVTZ
    Role: ORBITAL
    Keyword: BASIS
    atoms 1, 5, 8, 11, 14              entry C          line   235 file /home/xy3866/psi4conda/share/psi4/basis/aug-cc-pvtz.gbs 
    atoms 2-4, 6-7, 9-10, 12-13, 15-17 entry H          line    36 file /home/xy3866/psi4conda/share/psi4/basis/aug-cc-pvtz.gbs 


         ---------------------------------------------------------
                                   SCF
               by Justin Turney, Rob Parrish, Andy Simmonett
                          and Daniel G. A. Smith
                              RHF Reference
                        8 Threads,  30517 MiB Core
         ---------------------------------------------------------

  ==> Geometry <==

    Molecular point group: c1
    Full point group: C1

    Geometry (in Angstrom), charge = 0, multiplicity = 1:

       Center              X                  Y                   Z               Mass       
    ------------   -----------------  -----------------  -----------------  -----------------
         C            2.542837949348    -0.333330260342     0.000252951100    12.000000000000
         H            2.578292349348    -0.961254760342     0.896034651100     1.007825032230
         H            2.578806949348    -0.978401260342    -0.883254048900     1.007825032230
         H            3.443333949348     0.287969739658    -0.000535048900     1.007825032230
         C            1.275873949348     0.517862739658    -0.000228048900    12.000000000000
         H            1.274231949348     1.176076739658    -0.878201048900     1.007825032230
         H            1.273463949348     1.175758739658     0.877990951100     1.007825032230
         C            0.000016949348    -0.320725260342    -0.000948048900    12.000000000000
         H           -0.000005050652    -0.979246260342    -0.880429048900     1.007825032230
         H            0.000065949348    -0.980976260342     0.877244951100     1.007825032230
         C           -1.275848050652     0.517844739658    -0.000115048900    12.000000000000
         H           -1.274195050652     1.176204739658    -0.877981048900     1.007825032230
         H           -1.273453050652     1.175603739658     0.878207951100     1.007825032230
         C           -2.542819050652    -0.333324260342     0.000202951100    12.000000000000
         H           -2.579115050652    -0.977003260342     0.884698951100     1.007825032230
         H           -3.443300050652     0.287998739658    -0.000359048900     1.007825032230
         H           -2.578862050652    -0.978160260342    -0.883473048900     1.007825032230

  Running in c1 symmetry.

  Rotational constants: A =      0.56811  B =      0.06500  C =      0.06167 [cm^-1]
  Rotational constants: A =  17031.52101  B =   1948.74705  C =   1848.92612 [MHz]
  Nuclear repulsion =  185.023435114938934

  Charge       = 0
  Multiplicity = 1
  Electrons    = 42
  Nalpha       = 21
  Nbeta        = 21

  ==> Algorithm <==

  SCF Algorithm Type is DF.
  DIIS enabled.
  MOM disabled.
  Fractional occupation disabled.
  Guess Type is SAD.
  Energy threshold   = 1.00e-10
  Density threshold  = 1.00e-10
  Integral threshold = 0.00e+00

  ==> Primary Basis <==

  Basis Set: AUG-CC-PVTZ
    Blend: AUG-CC-PVTZ
    Number of shells: 178
    Number of basis function: 506
    Number of Cartesian functions: 575
    Spherical Harmonics?: true
    Max angular momentum: 3

   => Loading Basis Set <=

    Name: (AUG-CC-PVTZ AUX)
    Role: JKFIT
    Keyword: DF_BASIS_SCF
    atoms 1, 5, 8, 11, 14              entry C          line   162 file /home/xy3866/psi4conda/share/psi4/basis/aug-cc-pvtz-jkfit.gbs 
    atoms 2-4, 6-7, 9-10, 12-13, 15-17 entry H          line    70 file /home/xy3866/psi4conda/share/psi4/basis/aug-cc-pvtz-jkfit.gbs 

  ==> Pre-Iterations <==

   -------------------------------------------------------
    Irrep   Nso     Nmo     Nalpha   Nbeta   Ndocc  Nsocc
   -------------------------------------------------------
     A        506     506       0       0       0       0
   -------------------------------------------------------
    Total     506     506      21      21      21       0
   -------------------------------------------------------

  ==> Integral Setup <==

  DFHelper Memory: AOs need 2.044 GiB; user supplied 22.352 GiB. Using in-core AOs.

  ==> MemDFJK: Density-Fitted J/K Matrices <==

    J tasked:                   Yes
    K tasked:                   Yes
    wK tasked:                   No
    OpenMP threads:               8
    Memory [MiB]:             22888
    Algorithm:                 Disk
    Schwarz Cutoff:           1E-12
    Mask sparsity (%):       3.7151
    Fitting Condition:        1E-10

   => Auxiliary Basis Set <=

  Basis Set: (AUG-CC-PVTZ AUX)
    Blend: AUG-CC-PVTZ-JKFIT
    Number of shells: 318
    Number of basis function: 1072
    Number of Cartesian functions: 1315
    Spherical Harmonics?: true
    Max angular momentum: 4

  Minimum eigenvalue in the overlap matrix is 6.0151543774E-06.
  Using Symmetric Orthogonalization.

  SCF Guess: Superposition of Atomic Densities via on-the-fly atomic UHF.

  ==> Iterations <==

                           Total Energy        Delta E     RMS |[F,P]|

   @DF-RHF iter SAD:  -195.84153215140691   -1.95842e+02   0.00000e+00 
   @DF-RHF iter   1:  -196.13557549955306   -2.94043e-01   1.28985e-03 DIIS
   @DF-RHF iter   2:  -196.35343478642443   -2.17859e-01   5.93733e-04 DIIS
   @DF-RHF iter   3:  -196.40068029734289   -4.72455e-02   1.03813e-04 DIIS
   @DF-RHF iter   4:  -196.40370990493952   -3.02961e-03   2.21392e-05 DIIS
   @DF-RHF iter   5:  -196.40380788973101   -9.79848e-05   6.71331e-06 DIIS
   @DF-RHF iter   6:  -196.40381769334613   -9.80362e-06   1.03632e-06 DIIS
   @DF-RHF iter   7:  -196.40381799864122   -3.05295e-07   2.14425e-07 DIIS
   @DF-RHF iter   8:  -196.40381801225763   -1.36164e-08   4.13970e-08 DIIS
   @DF-RHF iter   9:  -196.40381801277326   -5.15627e-10   1.34088e-08 DIIS
   @DF-RHF iter  10:  -196.40381801281305   -3.97904e-11   3.41961e-09 DIIS
   @DF-RHF iter  11:  -196.40381801281714   -4.09273e-12   6.43579e-10 DIIS
   @DF-RHF iter  12:  -196.40381801281754   -3.97904e-13   1.19776e-10 DIIS
   @DF-RHF iter  13:  -196.40381801281680    7.38964e-13   2.48376e-11 DIIS
  Energy and wave function converged.


  ==> Post-Iterations <==

    Orbital Energies [Eh]
    ---------------------

    Doubly Occupied:                                                      

       1A    -11.214780     2A    -11.214648     3A    -11.212432  
       4A    -11.209412     5A    -11.209370     6A     -1.078868  
       7A     -1.013604     8A     -0.917529     9A     -0.818167  
      10A     -0.782977    11A     -0.645473    12A     -0.596490  
      13A     -0.592079    14A     -0.552378    15A     -0.545912  
      16A     -0.525626    17A     -0.492955    18A     -0.475539  
      19A     -0.460576    20A     -0.458363    21A     -0.446607  

    Virtual:                                                              

      22A      0.031637    23A      0.034332    24A      0.037993  
      25A      0.039491    26A      0.053442    27A      0.054233  
      28A      0.056300    29A      0.057977    30A      0.078313  
      31A      0.081220    32A      0.083145    33A      0.083952  
      34A      0.092471    35A      0.116039    36A      0.116968  
      37A      0.128804    38A      0.136709    39A      0.138272  
      40A      0.139312    41A      0.145118    42A      0.154560  
      43A      0.155436    44A      0.155477    45A      0.162503  
      46A      0.169190    47A      0.171127    48A      0.176729  
      49A      0.201367    50A      0.204382    51A      0.214350  
      52A      0.222069    53A      0.225522    54A      0.228944  
      55A      0.246038    56A      0.247967    57A      0.262179  
      58A      0.270042    59A      0.270990    60A      0.276658  
      61A      0.295390    62A      0.297989    63A      0.308976  
      64A      0.311742    65A      0.313555    66A      0.334348  
      67A      0.345480    68A      0.349572    69A      0.354094  
      70A      0.356883    71A      0.360741    72A      0.371243  
      73A      0.374236    74A      0.374568    75A      0.378509  
      76A      0.383461    77A      0.384174    78A      0.387337  
      79A      0.388123    80A      0.402414    81A      0.404114  
      82A      0.408453    83A      0.411809    84A      0.421935  
      85A      0.425118    86A      0.432693    87A      0.433124  
      88A      0.438470    89A      0.450067    90A      0.451780  
      91A      0.453919    92A      0.456975    93A      0.465154  
      94A      0.470617    95A      0.476319    96A      0.478036  
      97A      0.479232    98A      0.488896    99A      0.497361  
     100A      0.509130   101A      0.515566   102A      0.515692  
     103A      0.519187   104A      0.526204   105A      0.527754  
     106A      0.529864   107A      0.546435   108A      0.550162  
     109A      0.552323   110A      0.554454   111A      0.563052  
     112A      0.569104   113A      0.580398   114A      0.589300  
     115A      0.606967   116A      0.610162   117A      0.613704  
     118A      0.617051   119A      0.631907   120A      0.643806  
     121A      0.646227   122A      0.654382   123A      0.666081  
     124A      0.668320   125A      0.700161   126A      0.715801  
     127A      0.717214   128A      0.724120   129A      0.737391  
     130A      0.753532   131A      0.783862   132A      0.784727  
     133A      0.804030   134A      0.825134   135A      0.828194  
     136A      0.833761   137A      0.837105   138A      0.841986  
     139A      0.842223   140A      0.857849   141A      0.861563  
     142A      0.865185   143A      0.874582   144A      0.881943  
     145A      0.883959   146A      0.899239   147A      0.902119  
     148A      0.908090   149A      0.918793   150A      0.922005  
     151A      0.929398   152A      0.931216   153A      0.932903  
     154A      0.935434   155A      0.950662   156A      0.959551  
     157A      0.967910   158A      0.968509   159A      0.971356  
     160A      0.972892   161A      0.981898   162A      0.986274  
     163A      1.006107   164A      1.011309   165A      1.013589  
     166A      1.033375   167A      1.039081   168A      1.044989  
     169A      1.053916   170A      1.079866   171A      1.092467  
     172A      1.096133   173A      1.106168   174A      1.108221  
     175A      1.119643   176A      1.124408   177A      1.139783  
     178A      1.150861   179A      1.153457   180A      1.158448  
     181A      1.160090   182A      1.164546   183A      1.166915  
     184A      1.168533   185A      1.173996   186A      1.175258  
     187A      1.186241   188A      1.202811   189A      1.209460  
     190A      1.239734   191A      1.240438   192A      1.245442  
     193A      1.249609   194A      1.252822   195A      1.261341  
     196A      1.269064   197A      1.280334   198A      1.283339  
     199A      1.303663   200A      1.306934   201A      1.314683  
     202A      1.319207   203A      1.334708   204A      1.340737  
     205A      1.353626   206A      1.354811   207A      1.361848  
     208A      1.388607   209A      1.393469   210A      1.399339  
     211A      1.424056   212A      1.425531   213A      1.440674  
     214A      1.455062   215A      1.463496   216A      1.475241  
     217A      1.498508   218A      1.501981   219A      1.538591  
     220A      1.559294   221A      1.563877   222A      1.573670  
     223A      1.576335   224A      1.579148   225A      1.586248  
     226A      1.601069   227A      1.617424   228A      1.619034  
     229A      1.622677   230A      1.645970   231A      1.650056  
     232A      1.657275   233A      1.665164   234A      1.675354  
     235A      1.686557   236A      1.693035   237A      1.693781  
     238A      1.696244   239A      1.716719   240A      1.724931  
     241A      1.737364   242A      1.739819   243A      1.745961  
     244A      1.751802   245A      1.769418   246A      1.773277  
     247A      1.775325   248A      1.781121   249A      1.793388  
     250A      1.795797   251A      1.804790   252A      1.805301  
     253A      1.811643   254A      1.847073   255A      1.850016  
     256A      1.851625   257A      1.879360   258A      1.891399  
     259A      1.912546   260A      1.914653   261A      1.935382  
     262A      1.935964   263A      1.939777   264A      1.954458  
     265A      1.960419   266A      1.964487   267A      1.981676  
     268A      1.995597   269A      1.998512   270A      2.010331  
     271A      2.040486   272A      2.047798   273A      2.052562  
     274A      2.076794   275A      2.088033   276A      2.092388  
     277A      2.118528   278A      2.146774   279A      2.148716  
     280A      2.164460   281A      2.172896   282A      2.181837  
     283A      2.187626   284A      2.238851   285A      2.245838  
     286A      2.247882   287A      2.249151   288A      2.250991  
     289A      2.281205   290A      2.287007   291A      2.312855  
     292A      2.316298   293A      2.324316   294A      2.337368  
     295A      2.339476   296A      2.354212   297A      2.388501  
     298A      2.395312   299A      2.414021   300A      2.440295  
     301A      2.451049   302A      2.458316   303A      2.473600  
     304A      2.474944   305A      2.489187   306A      2.505207  
     307A      2.567668   308A      2.580810   309A      2.641965  
     310A      2.650473   311A      2.716537   312A      2.723816  
     313A      2.733786   314A      2.823181   315A      2.912359  
     316A      2.924328   317A      3.007362   318A      3.104559  
     319A      3.226472   320A      3.257283   321A      3.278755  
     322A      3.350211   323A      3.427473   324A      3.431347  
     325A      3.453778   326A      3.467450   327A      3.485673  
     328A      3.499264   329A      3.500234   330A      3.518390  
     331A      3.526394   332A      3.530924   333A      3.586444  
     334A      3.598530   335A      3.598821   336A      3.601976  
     337A      3.616416   338A      3.642287   339A      3.676888  
     340A      3.680623   341A      3.682897   342A      3.694181  
     343A      3.720239   344A      3.735488   345A      3.740644  
     346A      3.746956   347A      3.764415   348A      3.764720  
     349A      3.777569   350A      3.795156   351A      3.802544  
     352A      3.804692   353A      3.827437   354A      3.867148  
     355A      3.869348   356A      3.870998   357A      3.877890  
     358A      3.899663   359A      3.904221   360A      3.913304  
     361A      3.927013   362A      3.940569   363A      3.944552  
     364A      3.962862   365A      3.979228   366A      3.984140  
     367A      3.989740   368A      3.992001   369A      4.005770  
     370A      4.017626   371A      4.020850   372A      4.050118  
     373A      4.062911   374A      4.063539   375A      4.074873  
     376A      4.104080   377A      4.150214   378A      4.165485  
     379A      4.182906   380A      4.189790   381A      4.194843  
     382A      4.211996   383A      4.228743   384A      4.243511  
     385A      4.252505   386A      4.255931   387A      4.275628  
     388A      4.293079   389A      4.307695   390A      4.320948  
     391A      4.326337   392A      4.343910   393A      4.354264  
     394A      4.390974   395A      4.402918   396A      4.435825  
     397A      4.457184   398A      4.465235   399A      4.515650  
     400A      4.518195   401A      4.535414   402A      4.548007  
     403A      4.599662   404A      4.610213   405A      4.643058  
     406A      4.656179   407A      4.662426   408A      4.676504  
     409A      4.690871   410A      4.706892   411A      4.727440  
     412A      4.728134   413A      4.740341   414A      4.753377  
     415A      4.789800   416A      4.810411   417A      4.828780  
     418A      4.840021   419A      4.851511   420A      4.862413  
     421A      4.887273   422A      4.889247   423A      4.894010  
     424A      4.904014   425A      4.931092   426A      4.942356  
     427A      4.948810   428A      4.994652   429A      5.011898  
     430A      5.027844   431A      5.078302   432A      5.098162  
     433A      5.102001   434A      5.122260   435A      5.159119  
     436A      5.174463   437A      5.176088   438A      5.193857  
     439A      5.210199   440A      5.218764   441A      5.227477  
     442A      5.250792   443A      5.271978   444A      5.273935  
     445A      5.280027   446A      5.306030   447A      5.346449  
     448A      5.354238   449A      5.366035   450A      5.390795  
     451A      5.396461   452A      5.407508   453A      5.434003  
     454A      5.435860   455A      5.440839   456A      5.493268  
     457A      5.496828   458A      5.501546   459A      5.553117  
     460A      5.567915   461A      5.597316   462A      5.610327  
     463A      5.652244   464A      5.659325   465A      5.682677  
     466A      5.688871   467A      5.708987   468A      5.758458  
     469A      5.764467   470A      5.779140   471A      5.797166  
     472A      5.798451   473A      5.839314   474A      5.859635  
     475A      5.914355   476A      5.953364   477A      5.965203  
     478A      5.987967   479A      6.057996   480A      6.087086  
     481A      6.119588   482A      6.166188   483A      6.179633  
     484A      6.187047   485A      6.199777   486A      6.237442  
     487A      6.265054   488A      6.272044   489A      6.302776  
     490A      6.335435   491A      6.402044   492A      6.440398  
     493A      6.568140   494A      6.615506   495A      6.736431  
     496A      6.785649   497A      6.820228   498A      6.849706  
     499A      6.856412   500A      6.897730   501A      7.058675  
     502A     17.597196   503A     17.949225   504A     17.959925  
     505A     18.341670   506A     19.096693  

    Final Occupation by Irrep:
              A 
    DOCC [    21 ]

  @DF-RHF Final Energy:  -196.40381801281680

   => Energetics <=

    Nuclear Repulsion Energy =            185.0234351149389340
    One-Electron Energy =                -629.9269348434144149
    Two-Electron Energy =                 248.4996817156586815
    Total Energy =                       -196.4038180128167994

Computation Completed

*** tstop() called on node142.bme.utexas.edu at Tue Nov  3 19:48:09 2020
Module time:
	user time   =     223.60 seconds =       3.73 minutes
	system time =      24.80 seconds =       0.41 minutes
	total time  =         52 seconds =       0.87 minutes
Total time:
	user time   =     223.60 seconds =       3.73 minutes
	system time =      24.80 seconds =       0.41 minutes
	total time  =         52 seconds =       0.87 minutes
   => Loading Basis Set <=

    Name: (AUG-CC-PVTZ AUX)
    Role: RIFIT
    Keyword: DF_BASIS_MP2
    atoms 1, 5, 8, 11, 14              entry C          line   148 file /home/xy3866/psi4conda/share/psi4/basis/aug-cc-pvtz-ri.gbs 
    atoms 2-4, 6-7, 9-10, 12-13, 15-17 entry H          line    30 file /home/xy3866/psi4conda/share/psi4/basis/aug-cc-pvtz-ri.gbs 


*** tstart() called on node142.bme.utexas.edu
*** at Tue Nov  3 19:48:09 2020


  //>>>>>>>>>>>>>>>>>>>>>>>>>>>>>>>>>>>//
  //               DFMP2               //
  //<<<<<<<<<<<<<<<<<<<<<<<<<<<<<<<<<<<//

	 --------------------------------------------------------
	                          DF-MP2                         
	      2nd-Order Density-Fitted Moller-Plesset Theory     
	              RMP2 Wavefunction,   8 Threads             
	                                                         
	        Rob Parrish, Justin Turney, Andy Simmonett,      
	           Ed Hohenstein, and C. David Sherrill          
	 --------------------------------------------------------

   => Auxiliary Basis Set <=

  Basis Set: (AUG-CC-PVTZ AUX)
    Blend: AUG-CC-PVTZ-RI
    Number of shells: 308
    Number of basis function: 1082
    Number of Cartesian functions: 1340
    Spherical Harmonics?: true
    Max angular momentum: 4

	 --------------------------------------------------------
	                 NBF =   506, NAUX =  1082
	 --------------------------------------------------------
	   CLASS    FOCC     OCC    AOCC    AVIR     VIR    FVIR
	   PAIRS       0      21      21     485     485       0
	 --------------------------------------------------------

  DFHelper Memory: AOs need 2.044 GiB; user supplied 22.352 GiB. Using in-core AOs.


         ------------------------------------------------------------
                                     CPHF                           
                                  Rob Parrish                       
         ------------------------------------------------------------

  ==> Geometry <==

    Molecular point group: c1
    Full point group: C1

    Geometry (in Angstrom), charge = 0, multiplicity = 1:

       Center              X                  Y                   Z               Mass       
    ------------   -----------------  -----------------  -----------------  -----------------
         C            2.542837949348    -0.333330260342     0.000252951100    12.000000000000
         H            2.578292349348    -0.961254760342     0.896034651100     1.007825032230
         H            2.578806949348    -0.978401260342    -0.883254048900     1.007825032230
         H            3.443333949348     0.287969739658    -0.000535048900     1.007825032230
         C            1.275873949348     0.517862739658    -0.000228048900    12.000000000000
         H            1.274231949348     1.176076739658    -0.878201048900     1.007825032230
         H            1.273463949348     1.175758739658     0.877990951100     1.007825032230
         C            0.000016949348    -0.320725260342    -0.000948048900    12.000000000000
         H           -0.000005050652    -0.979246260342    -0.880429048900     1.007825032230
         H            0.000065949348    -0.980976260342     0.877244951100     1.007825032230
         C           -1.275848050652     0.517844739658    -0.000115048900    12.000000000000
         H           -1.274195050652     1.176204739658    -0.877981048900     1.007825032230
         H           -1.273453050652     1.175603739658     0.878207951100     1.007825032230
         C           -2.542819050652    -0.333324260342     0.000202951100    12.000000000000
         H           -2.579115050652    -0.977003260342     0.884698951100     1.007825032230
         H           -3.443300050652     0.287998739658    -0.000359048900     1.007825032230
         H           -2.578862050652    -0.978160260342    -0.883473048900     1.007825032230

  Nuclear repulsion =  185.023435114938934
  Reference energy  = -196.403818012816799

  ==> Basis Set <==

  Basis Set: AUG-CC-PVTZ
    Blend: AUG-CC-PVTZ
    Number of shells: 178
    Number of basis function: 506
    Number of Cartesian functions: 575
    Spherical Harmonics?: true
    Max angular momentum: 3

  ==> CGRSolver (by Rob Parrish) <==

   Number of roots    =         1
   Preconditioning    =    JACOBI
   Convergence cutoff =     1E-06
   Maximum iterations =       100

  ==> CPHFRHamiltonian (by Rob Parrish) <== 

  ==> MemDFJK: Density-Fitted J/K Matrices <==

    J tasked:                   Yes
    K tasked:                   Yes
    wK tasked:                   No
    OpenMP threads:               8
    Memory [MiB]:             22888
    Algorithm:                 Disk
    Schwarz Cutoff:           1E-12
    Mask sparsity (%):       3.7151
    Fitting Condition:        1E-10

   => Auxiliary Basis Set <=

  Basis Set: (AUG-CC-PVTZ AUX)
    Blend: AUG-CC-PVTZ-JKFIT
    Number of shells: 318
    Number of basis function: 1072
    Number of Cartesian functions: 1315
    Spherical Harmonics?: true
    Max angular momentum: 4

  ==> CPHF Iterations <==

  => Iterations <=

             Iter  Converged  Remaining    Residual
  CGR           1          0          1   8.347E-02
  CGR           2          0          1   1.283E-02
  CGR           3          0          1   2.949E-03
  CGR           4          0          1   8.309E-04
  CGR           5          0          1   1.471E-04
  CGR           6          0          1   3.197E-05
  CGR           7          0          1   5.708E-06
  CGR           8          0          1   1.589E-06
  CGR           9          1          0   4.018E-07

    CGRSolver converged.

	-----------------------------------------------------------
	 ==================> DF-MP2 Energies <==================== 
	-----------------------------------------------------------
	 Reference Energy          =    -196.4038180128167994 [Eh]
	 Singles Energy            =      -0.0000000000000000 [Eh]
	 Same-Spin Energy          =      -0.2077206976366167 [Eh]
	 Opposite-Spin Energy      =      -0.7933408031495879 [Eh]
	 Correlation Energy        =      -1.0010615007862045 [Eh]
	 Total Energy              =    -197.4048795136029923 [Eh]
	-----------------------------------------------------------
	 ================> DF-SCS-MP2 Energies <================== 
	-----------------------------------------------------------
	 SCS Same-Spin Scale       =       0.3333333333333333 [-]
	 SCS Opposite-Spin Scale   =       1.2000000000000000 [-]
	 SCS Same-Spin Energy      =      -0.0692402325455389 [Eh]
	 SCS Opposite-Spin Energy  =      -0.9520089637795054 [Eh]
	 SCS Correlation Energy    =      -1.0212491963250443 [Eh]
	 SCS Total Energy          =    -197.4250672091418437 [Eh]
	-----------------------------------------------------------



Properties will be evaluated at   0.000000,  -0.000000,  -0.000000 [a0]

Properties computed using the MP2 density matrix

  Nuclear Dipole Moment: [e a0]
     X:    -0.0007      Y:    -0.5394      Z:     0.0093

  Electronic Dipole Moment: [e a0]
     X:     0.0014      Y:     0.5755      Z:    -0.0086

  Dipole Moment: [e a0]
     X:     0.0007      Y:     0.0360      Z:     0.0007     Total:     0.0360

  Dipole Moment: [D]
     X:     0.0019      Y:     0.0915      Z:     0.0018     Total:     0.0916


*** tstop() called on node142.bme.utexas.edu at Tue Nov  3 19:49:46 2020
Module time:
	user time   =     552.70 seconds =       9.21 minutes
	system time =      25.09 seconds =       0.42 minutes
	total time  =         97 seconds =       1.62 minutes
Total time:
	user time   =     776.62 seconds =      12.94 minutes
	system time =      49.90 seconds =       0.83 minutes
	total time  =        149 seconds =       2.48 minutes

    Psi4 stopped on: Tuesday, 03 November 2020 07:49PM
    Psi4 wall time for execution: 0:02:29.37

*** Psi4 exiting successfully. Buy a developer a beer!
