
    -----------------------------------------------------------------------
          Psi4: An Open-Source Ab Initio Electronic Structure Package
                               Psi4 1.4a3.dev225 

                         Git: Rev {master} 7105e37 


    D. G. A. Smith, L. A. Burns, A. C. Simmonett, R. M. Parrish,
    M. C. Schieber, R. Galvelis, P. Kraus, H. Kruse, R. Di Remigio,
    A. Alenaizan, A. M. James, S. Lehtola, J. P. Misiewicz, M. Scheurer,
    R. A. Shaw, J. B. Schriber, Y. Xie, Z. L. Glick, D. A. Sirianni,
    J. S. O'Brien, J. M. Waldrop, A. Kumar, E. G. Hohenstein,
    B. P. Pritchard, B. R. Brooks, H. F. Schaefer III, A. Yu. Sokolov,
    K. Patkowski, A. E. DePrince III, U. Bozkaya, R. A. King,
    F. A. Evangelista, J. M. Turney, T. D. Crawford, C. D. Sherrill,
    J. Chem. Phys. 152(18) 184108 (2020). https://doi.org/10.1063/5.0006002

                            Additional Code Authors
    E. T. Seidl, C. L. Janssen, E. F. Valeev, M. L. Leininger,
    J. F. Gonthier, R. M. Richard, H. R. McAlexander, M. Saitow, X. Wang,
    P. Verma, and M. H. Lechner

             Previous Authors, Complete List of Code Contributors,
                       and Citations for Specific Modules
    https://github.com/psi4/psi4/blob/master/codemeta.json
    https://github.com/psi4/psi4/graphs/contributors
    http://psicode.org/psi4manual/master/introduction.html#citing-psifour

    -----------------------------------------------------------------------


    Psi4 started on: Thursday, 18 March 2021 11:23PM

    Process ID: 23761
    Host:       c468-104.stampede2.tacc.utexas.edu
    PSIDATADIR: /home1/07844/xy3866/miniconda3/envs/p4env/share/psi4
    Memory:     500.0 MiB
    Threads:    8
    
  ==> Input File <==

--------------------------------------------------------------------------
#psi4
#
memory 32 gb

molecule  {
0 1
  C        2.5434150    -0.3258570     0.0000020
  H        2.5799190    -0.9700390     0.8840510
  H        2.5798870    -0.9701100    -0.8839970
  H        3.4436120     0.2958290    -0.0000390
  C        1.2759530     0.5247200    -0.0000120
  H        1.2739300     1.1828070    -0.8780290
  H        1.2739250     1.1828280     0.8779900
  C       -0.0167141    -0.3247405    -0.0000049
  H       -0.0000060    -0.9732170    -0.8787350
  H        0.0000060    -0.9732200     0.8787230
  C       -1.2759530     0.5247200     0.0000030
  H       -1.2739340     1.1828180    -0.8780070
  H       -1.2739210     1.1828170     0.8780130
  C       -2.5434150    -0.3258570     0.0000110
  H       -2.5799100    -0.9700590     0.8840460
  H       -3.4436120     0.2958290    -0.0000090
  H       -2.5798950    -0.9700920    -0.8840020
units angstrom
no_reorient  #important for SAPT in psi4, default
symmetry c1  #important for SAPT in psi4, default
}

set PROPERTIES_ORIGIN ["COM"]
properties('MP2/aug-cc-pvtz', properties = ['dipole'])
--------------------------------------------------------------------------

  Memory set to  29.802 GiB by Python driver.
    SCF Algorithm Type (re)set to DF.

*** tstart() called on c468-104.stampede2.tacc.utexas.edu
*** at Thu Mar 18 23:23:05 2021

   => Loading Basis Set <=

    Name: AUG-CC-PVTZ
    Role: ORBITAL
    Keyword: BASIS
    atoms 1, 5, 8, 11, 14              entry C          line   239 file /home1/07844/xy3866/miniconda3/envs/p4env/share/psi4/basis/aug-cc-pvtz.gbs 
    atoms 2-4, 6-7, 9-10, 12-13, 15-17 entry H          line    40 file /home1/07844/xy3866/miniconda3/envs/p4env/share/psi4/basis/aug-cc-pvtz.gbs 


         ---------------------------------------------------------
                                   SCF
               by Justin Turney, Rob Parrish, Andy Simmonett
                          and Daniel G. A. Smith
                              RHF Reference
                        8 Threads,  30517 MiB Core
         ---------------------------------------------------------

  ==> Geometry <==

    Molecular point group: c1
    Full point group: C1

    Geometry (in Angstrom), charge = 0, multiplicity = 1:

       Center              X                  Y                   Z               Mass       
    ------------   -----------------  -----------------  -----------------  -----------------
         C            2.546197041076    -0.330962489873     0.000002079908    12.000000000000
         H            2.582701041076    -0.975144489873     0.884051079908     1.007825032230
         H            2.582669041076    -0.975215489873    -0.883996920092     1.007825032230
         H            3.446394041076     0.290723510127    -0.000038920092     1.007825032230
         C            1.278735041076     0.519614510127    -0.000011920092    12.000000000000
         H            1.276712041076     1.177701510127    -0.878028920092     1.007825032230
         H            1.276707041076     1.177722510127     0.877990079908     1.007825032230
         C           -0.013932058924    -0.329845989873    -0.000004820092    12.000000000000
         H            0.002776041076    -0.978322489873    -0.878734920092     1.007825032230
         H            0.002788041076    -0.978325489873     0.878723079908     1.007825032230
         C           -1.273170958924     0.519614510127     0.000003079908    12.000000000000
         H           -1.271151958924     1.177712510127    -0.878006920092     1.007825032230
         H           -1.271138958924     1.177711510127     0.878013079908     1.007825032230
         C           -2.540632958924    -0.330962489873     0.000011079908    12.000000000000
         H           -2.577127958924    -0.975164489873     0.884046079908     1.007825032230
         H           -3.440829958924     0.290723510127    -0.000008920092     1.007825032230
         H           -2.577112958924    -0.975197489873    -0.884001920092     1.007825032230

  Running in c1 symmetry.

  Rotational constants: A =      0.56657  B =      0.06498  C =      0.06163 [cm^-1]
  Rotational constants: A =  16985.41687  B =   1948.09171  C =   1847.50277 [MHz]
  Nuclear repulsion =  184.926706183906077

  Charge       = 0
  Multiplicity = 1
  Electrons    = 42
  Nalpha       = 21
  Nbeta        = 21

  ==> Algorithm <==

  SCF Algorithm Type is DF.
  DIIS enabled.
  MOM disabled.
  Fractional occupation disabled.
  Guess Type is SAD.
  Energy threshold   = 1.00e-10
  Density threshold  = 1.00e-10
  Integral threshold = 1.00e-12

  ==> Primary Basis <==

  Basis Set: AUG-CC-PVTZ
    Blend: AUG-CC-PVTZ
    Number of shells: 178
    Number of basis functions: 506
    Number of Cartesian functions: 575
    Spherical Harmonics?: true
    Max angular momentum: 3

   => Loading Basis Set <=

    Name: (AUG-CC-PVTZ AUX)
    Role: JKFIT
    Keyword: DF_BASIS_SCF
    atoms 1, 5, 8, 11, 14              entry C          line   162 file /home1/07844/xy3866/miniconda3/envs/p4env/share/psi4/basis/aug-cc-pvtz-jkfit.gbs 
    atoms 2-4, 6-7, 9-10, 12-13, 15-17 entry H          line    70 file /home1/07844/xy3866/miniconda3/envs/p4env/share/psi4/basis/aug-cc-pvtz-jkfit.gbs 

  ==> Integral Setup <==

  DFHelper Memory: AOs need 1.997 GiB; user supplied 22.352 GiB. Using in-core AOs.

  ==> MemDFJK: Density-Fitted J/K Matrices <==

    J tasked:                   Yes
    K tasked:                   Yes
    wK tasked:                   No
    OpenMP threads:               8
    Memory [MiB]:             22888
    Algorithm:                 Core
    Schwarz Cutoff:           1E-12
    Mask sparsity (%):       6.0491
    Fitting Condition:        1E-10

   => Auxiliary Basis Set <=

  Basis Set: (AUG-CC-PVTZ AUX)
    Blend: AUG-CC-PVTZ-JKFIT
    Number of shells: 318
    Number of basis functions: 1072
    Number of Cartesian functions: 1315
    Spherical Harmonics?: true
    Max angular momentum: 4

  Minimum eigenvalue in the overlap matrix is 6.0663638840E-06.
  Reciprocal condition number of the overlap matrix is 3.0246605893E-07.
    Using symmetric orthogonalization.

  ==> Pre-Iterations <==

  SCF Guess: Superposition of Atomic Densities via on-the-fly atomic UHF (no occupation information).

   -------------------------
    Irrep   Nso     Nmo    
   -------------------------
     A        506     506 
   -------------------------
    Total     506     506
   -------------------------

  ==> Iterations <==

                           Total Energy        Delta E     RMS |[F,P]|

   @DF-RHF iter SAD:  -195.82989313360218   -1.95830e+02   0.00000e+00 
   @DF-RHF iter   1:  -196.13646596841801   -3.06573e-01   1.28736e-03 DIIS
   @DF-RHF iter   2:  -196.35370626058236   -2.17240e-01   5.90766e-04 DIIS
   @DF-RHF iter   3:  -196.40049538770927   -4.67891e-02   1.03446e-04 DIIS
   @DF-RHF iter   4:  -196.40350847349580   -3.01309e-03   2.15972e-05 DIIS
   @DF-RHF iter   5:  -196.40360314660785   -9.46731e-05   6.67878e-06 DIIS
   @DF-RHF iter   6:  -196.40361274052742   -9.59392e-06   1.02990e-06 DIIS
   @DF-RHF iter   7:  -196.40361304154567   -3.01018e-07   2.12783e-07 DIIS
   @DF-RHF iter   8:  -196.40361305476117   -1.32155e-08   4.24502e-08 DIIS
   @DF-RHF iter   9:  -196.40361305526739   -5.06219e-10   1.48199e-08 DIIS
   @DF-RHF iter  10:  -196.40361305531411   -4.67253e-11   3.49601e-09 DIIS
   @DF-RHF iter  11:  -196.40361305531769   -3.58114e-12   7.98304e-10 DIIS
   @DF-RHF iter  12:  -196.40361305531852   -8.24230e-13   2.82363e-10 DIIS
   @DF-RHF iter  13:  -196.40361305531829    2.27374e-13   6.56581e-11 DIIS
  Energy and wave function converged.


  ==> Post-Iterations <==

    Orbital Energies [Eh]
    ---------------------

    Doubly Occupied:                                                      

       1A    -11.215342     2A    -11.214437     3A    -11.211913  
       4A    -11.209220     5A    -11.209027     6A     -1.077860  
       7A     -1.013032     8A     -0.917183     9A     -0.817491  
      10A     -0.784306    11A     -0.645588    12A     -0.596103  
      13A     -0.591293    14A     -0.551680    15A     -0.546152  
      16A     -0.525939    17A     -0.493469    18A     -0.474976  
      19A     -0.462201    20A     -0.460506    21A     -0.443133  

    Virtual:                                                              

      22A      0.031618    23A      0.034366    24A      0.037966  
      25A      0.039514    26A      0.053448    27A      0.054198  
      28A      0.056334    29A      0.057941    30A      0.078309  
      31A      0.081226    32A      0.083152    33A      0.083902  
      34A      0.092532    35A      0.115981    36A      0.117062  
      37A      0.128880    38A      0.136778    39A      0.138224  
      40A      0.139350    41A      0.145205    42A      0.154560  
      43A      0.155401    44A      0.155522    45A      0.162416  
      46A      0.169042    47A      0.171019    48A      0.176726  
      49A      0.201501    50A      0.204164    51A      0.213960  
      52A      0.221884    53A      0.225703    54A      0.228965  
      55A      0.246088    56A      0.247982    57A      0.262449  
      58A      0.270147    59A      0.271240    60A      0.276578  
      61A      0.295434    62A      0.298303    63A      0.308692  
      64A      0.312002    65A      0.313278    66A      0.334702  
      67A      0.345257    68A      0.349507    69A      0.353797  
      70A      0.356884    71A      0.360390    72A      0.371387  
      73A      0.374147    74A      0.374449    75A      0.378372  
      76A      0.383645    77A      0.384221    78A      0.387457  
      79A      0.387957    80A      0.402359    81A      0.403809  
      82A      0.408264    83A      0.411688    84A      0.421922  
      85A      0.424239    86A      0.432971    87A      0.433398  
      88A      0.438494    89A      0.449594    90A      0.451740  
      91A      0.453797    92A      0.456981    93A      0.465189  
      94A      0.470863    95A      0.477312    96A      0.478639  
      97A      0.479058    98A      0.488153    99A      0.497600  
     100A      0.509267   101A      0.515720   102A      0.515975  
     103A      0.518856   104A      0.525975   105A      0.527673  
     106A      0.529528   107A      0.546524   108A      0.550443  
     109A      0.552130   110A      0.554311   111A      0.562734  
     112A      0.568546   113A      0.580315   114A      0.589254  
     115A      0.606864   116A      0.610070   117A      0.613019  
     118A      0.617072   119A      0.631766   120A      0.643377  
     121A      0.646169   122A      0.653531   123A      0.665369  
     124A      0.668378   125A      0.700128   126A      0.715674  
     127A      0.717554   128A      0.723348   129A      0.736698  
     130A      0.753089   131A      0.784506   132A      0.784813  
     133A      0.804554   134A      0.824776   135A      0.828173  
     136A      0.834426   137A      0.836598   138A      0.842147  
     139A      0.842237   140A      0.857266   141A      0.861967  
     142A      0.865058   143A      0.874595   144A      0.881107  
     145A      0.883314   146A      0.899708   147A      0.902016  
     148A      0.908155   149A      0.918897   150A      0.921367  
     151A      0.928750   152A      0.931694   153A      0.932446  
     154A      0.935569   155A      0.950675   156A      0.960825  
     157A      0.967988   158A      0.968563   159A      0.972259  
     160A      0.973473   161A      0.982985   162A      0.986191  
     163A      1.005960   164A      1.011304   165A      1.013391  
     166A      1.033010   167A      1.039024   168A      1.046672  
     169A      1.053664   170A      1.079879   171A      1.091495  
     172A      1.096084   173A      1.104618   174A      1.108252  
     175A      1.119588   176A      1.123922   177A      1.140656  
     178A      1.150330   179A      1.153480   180A      1.157991  
     181A      1.159695   182A      1.164907   183A      1.167327  
     184A      1.168158   185A      1.173820   186A      1.174426  
     187A      1.186367   188A      1.204254   189A      1.208937  
     190A      1.239428   191A      1.239631   192A      1.245851  
     193A      1.250177   194A      1.252567   195A      1.261353  
     196A      1.269194   197A      1.280230   198A      1.282810  
     199A      1.304073   200A      1.306120   201A      1.314909  
     202A      1.319436   203A      1.334750   204A      1.340818  
     205A      1.353033   206A      1.354788   207A      1.360818  
     208A      1.388123   209A      1.394585   210A      1.398114  
     211A      1.424841   212A      1.426099   213A      1.440836  
     214A      1.454631   215A      1.462726   216A      1.474931  
     217A      1.498736   218A      1.502677   219A      1.539455  
     220A      1.559447   221A      1.563038   222A      1.574079  
     223A      1.575424   224A      1.578810   225A      1.585720  
     226A      1.601354   227A      1.617604   228A      1.617863  
     229A      1.622307   230A      1.646998   231A      1.649681  
     232A      1.657604   233A      1.664706   234A      1.675700  
     235A      1.685757   236A      1.692925   237A      1.694913  
     238A      1.695920   239A      1.715401   240A      1.724123  
     241A      1.736311   242A      1.740631   243A      1.745029  
     244A      1.751878   245A      1.768000   246A      1.772056  
     247A      1.774945   248A      1.780914   249A      1.793095  
     250A      1.794938   251A      1.804113   252A      1.804577  
     253A      1.810493   254A      1.848184   255A      1.850692  
     256A      1.851044   257A      1.880021   258A      1.890409  
     259A      1.911362   260A      1.915666   261A      1.933195  
     262A      1.938185   263A      1.940833   264A      1.954043  
     265A      1.960186   266A      1.963989   267A      1.981758  
     268A      1.994861   269A      1.998230   270A      2.011426  
     271A      2.040176   272A      2.047466   273A      2.053253  
     274A      2.076541   275A      2.088520   276A      2.092482  
     277A      2.118763   278A      2.147946   279A      2.148036  
     280A      2.165004   281A      2.173188   282A      2.179744  
     283A      2.188356   284A      2.237981   285A      2.245582  
     286A      2.246568   287A      2.249864   288A      2.251112  
     289A      2.281957   290A      2.286863   291A      2.313143  
     292A      2.319598   293A      2.324923   294A      2.337641  
     295A      2.340397   296A      2.355392   297A      2.389240  
     298A      2.394897   299A      2.413955   300A      2.439510  
     301A      2.451027   302A      2.459102   303A      2.473676  
     304A      2.474425   305A      2.487174   306A      2.506703  
     307A      2.564163   308A      2.579953   309A      2.633688  
     310A      2.653590   311A      2.710658   312A      2.731598  
     313A      2.733912   314A      2.819067   315A      2.900403  
     316A      2.924341   317A      3.008208   318A      3.095136  
     319A      3.226910   320A      3.259193   321A      3.276803  
     322A      3.347515   323A      3.426729   324A      3.426751  
     325A      3.451953   326A      3.467529   327A      3.487722  
     328A      3.497603   329A      3.499919   330A      3.519452  
     331A      3.526526   332A      3.530523   333A      3.586464  
     334A      3.593806   335A      3.595876   336A      3.597697  
     337A      3.618265   338A      3.642190   339A      3.678109  
     340A      3.678896   341A      3.683829   342A      3.694949  
     343A      3.718867   344A      3.739038   345A      3.740662  
     346A      3.747299   347A      3.763653   348A      3.764351  
     349A      3.775208   350A      3.796579   351A      3.801936  
     352A      3.804976   353A      3.825845   354A      3.865739  
     355A      3.865751   356A      3.872480   357A      3.877409  
     358A      3.899727   359A      3.905265   360A      3.913604  
     361A      3.923011   362A      3.939947   363A      3.943599  
     364A      3.960820   365A      3.978904   366A      3.983717  
     367A      3.989588   368A      3.992257   369A      4.004763  
     370A      4.019667   371A      4.022788   372A      4.051199  
     373A      4.058261   374A      4.065625   375A      4.075997  
     376A      4.101433   377A      4.147052   378A      4.163456  
     379A      4.180016   380A      4.189830   381A      4.194796  
     382A      4.213534   383A      4.229248   384A      4.244774  
     385A      4.252614   386A      4.253862   387A      4.276518  
     388A      4.294519   389A      4.307331   390A      4.318592  
     391A      4.325149   392A      4.340810   393A      4.357085  
     394A      4.389986   395A      4.398734   396A      4.437176  
     397A      4.454136   398A      4.465295   399A      4.515352  
     400A      4.519925   401A      4.536962   402A      4.549189  
     403A      4.599030   404A      4.609715   405A      4.638536  
     406A      4.658580   407A      4.660804   408A      4.678113  
     409A      4.692497   410A      4.704259   411A      4.725731  
     412A      4.728077   413A      4.740473   414A      4.753821  
     415A      4.789038   416A      4.810703   417A      4.829397  
     418A      4.840524   419A      4.852865   420A      4.863424  
     421A      4.886558   422A      4.889573   423A      4.893963  
     424A      4.905503   425A      4.929052   426A      4.942893  
     427A      4.957701   428A      4.993671   429A      5.011360  
     430A      5.028524   431A      5.075976   432A      5.097457  
     433A      5.100964   434A      5.122772   435A      5.164640  
     436A      5.174501   437A      5.176732   438A      5.193167  
     439A      5.208907   440A      5.218849   441A      5.225587  
     442A      5.248234   443A      5.271829   444A      5.274763  
     445A      5.278657   446A      5.309999   447A      5.351661  
     448A      5.354657   449A      5.367810   450A      5.393075  
     451A      5.398186   452A      5.407574   453A      5.433066  
     454A      5.436913   455A      5.439767   456A      5.489625  
     457A      5.494849   458A      5.504802   459A      5.554609  
     460A      5.568280   461A      5.595800   462A      5.611458  
     463A      5.656899   464A      5.661029   465A      5.679853  
     466A      5.691185   467A      5.708249   468A      5.752689  
     469A      5.768076   470A      5.779057   471A      5.793861  
     472A      5.796002   473A      5.840860   474A      5.864200  
     475A      5.914518   476A      5.946696   477A      5.966061  
     478A      5.985159   479A      6.055953   480A      6.090507  
     481A      6.126461   482A      6.166561   483A      6.179961  
     484A      6.182332   485A      6.208178   486A      6.236695  
     487A      6.264548   488A      6.273187   489A      6.302816  
     490A      6.339793   491A      6.397682   492A      6.434250  
     493A      6.568426   494A      6.613806   495A      6.740266  
     496A      6.789037   497A      6.821578   498A      6.848584  
     499A      6.853599   500A      6.898322   501A      7.055648  
     502A     17.554915   503A     17.943231   504A     17.971197  
     505A     18.326563   506A     19.054363  

    Final Occupation by Irrep:
              A 
    DOCC [    21 ]

  @DF-RHF Final Energy:  -196.40361305531829

   => Energetics <=

    Nuclear Repulsion Energy =            184.9267061839060773
    One-Electron Energy =                -629.7389381232554797
    Two-Electron Energy =                 248.4086188840311422
    Total Energy =                       -196.4036130553182886

Computation Completed

*** tstop() called on c468-104.stampede2.tacc.utexas.edu at Thu Mar 18 23:23:31 2021
Module time:
	user time   =     137.40 seconds =       2.29 minutes
	system time =       4.80 seconds =       0.08 minutes
	total time  =         26 seconds =       0.43 minutes
Total time:
	user time   =     137.40 seconds =       2.29 minutes
	system time =       4.80 seconds =       0.08 minutes
	total time  =         26 seconds =       0.43 minutes
   => Loading Basis Set <=

    Name: (AUG-CC-PVTZ AUX)
    Role: RIFIT
    Keyword: DF_BASIS_MP2
    atoms 1, 5, 8, 11, 14              entry C          line   148 file /home1/07844/xy3866/miniconda3/envs/p4env/share/psi4/basis/aug-cc-pvtz-ri.gbs 
    atoms 2-4, 6-7, 9-10, 12-13, 15-17 entry H          line    30 file /home1/07844/xy3866/miniconda3/envs/p4env/share/psi4/basis/aug-cc-pvtz-ri.gbs 


*** tstart() called on c468-104.stampede2.tacc.utexas.edu
*** at Thu Mar 18 23:23:32 2021


  //>>>>>>>>>>>>>>>>>>>>>>>>>>>>>>>>>>>//
  //               DFMP2               //
  //<<<<<<<<<<<<<<<<<<<<<<<<<<<<<<<<<<<//

	 --------------------------------------------------------
	                          DF-MP2                         
	      2nd-Order Density-Fitted Moller-Plesset Theory     
	              RMP2 Wavefunction,   8 Threads             
	                                                         
	        Rob Parrish, Justin Turney, Andy Simmonett,      
	           Ed Hohenstein, and C. David Sherrill          
	 --------------------------------------------------------

   => Auxiliary Basis Set <=

  Basis Set: (AUG-CC-PVTZ AUX)
    Blend: AUG-CC-PVTZ-RI
    Number of shells: 308
    Number of basis functions: 1082
    Number of Cartesian functions: 1340
    Spherical Harmonics?: true
    Max angular momentum: 4

	 --------------------------------------------------------
	                 NBF =   506, NAUX =  1082
	 --------------------------------------------------------
	   CLASS    FOCC     OCC    AOCC    AVIR     VIR    FVIR
	   PAIRS       0      21      21     485     485       0
	 --------------------------------------------------------

  DFHelper Memory: AOs need 2.044 GiB; user supplied 22.352 GiB. Using in-core AOs.


         ------------------------------------------------------------
                                     CPHF                           
                                  Rob Parrish                       
         ------------------------------------------------------------

  ==> Geometry <==

    Molecular point group: c1
    Full point group: C1

    Geometry (in Angstrom), charge = 0, multiplicity = 1:

       Center              X                  Y                   Z               Mass       
    ------------   -----------------  -----------------  -----------------  -----------------
         C            2.546197041076    -0.330962489873     0.000002079908    12.000000000000
         H            2.582701041076    -0.975144489873     0.884051079908     1.007825032230
         H            2.582669041076    -0.975215489873    -0.883996920092     1.007825032230
         H            3.446394041076     0.290723510127    -0.000038920092     1.007825032230
         C            1.278735041076     0.519614510127    -0.000011920092    12.000000000000
         H            1.276712041076     1.177701510127    -0.878028920092     1.007825032230
         H            1.276707041076     1.177722510127     0.877990079908     1.007825032230
         C           -0.013932058924    -0.329845989873    -0.000004820092    12.000000000000
         H            0.002776041076    -0.978322489873    -0.878734920092     1.007825032230
         H            0.002788041076    -0.978325489873     0.878723079908     1.007825032230
         C           -1.273170958924     0.519614510127     0.000003079908    12.000000000000
         H           -1.271151958924     1.177712510127    -0.878006920092     1.007825032230
         H           -1.271138958924     1.177711510127     0.878013079908     1.007825032230
         C           -2.540632958924    -0.330962489873     0.000011079908    12.000000000000
         H           -2.577127958924    -0.975164489873     0.884046079908     1.007825032230
         H           -3.440829958924     0.290723510127    -0.000008920092     1.007825032230
         H           -2.577112958924    -0.975197489873    -0.884001920092     1.007825032230

  Nuclear repulsion =  184.926706183906077
  Reference energy  = -196.403613055318289

  ==> Basis Set <==

  Basis Set: AUG-CC-PVTZ
    Blend: AUG-CC-PVTZ
    Number of shells: 178
    Number of basis functions: 506
    Number of Cartesian functions: 575
    Spherical Harmonics?: true
    Max angular momentum: 3

  ==> CGRSolver (by Rob Parrish) <==

   Number of roots    =         1
   Preconditioning    =    JACOBI
   Convergence cutoff =     1E-06
   Maximum iterations =       100

  ==> CPHFRHamiltonian (by Rob Parrish) <== 

  ==> MemDFJK: Density-Fitted J/K Matrices <==

    J tasked:                   Yes
    K tasked:                   Yes
    wK tasked:                   No
    OpenMP threads:               8
    Memory [MiB]:             22888
    Algorithm:                 Core
    Schwarz Cutoff:           1E-12
    Mask sparsity (%):       3.7151
    Fitting Condition:        1E-10

   => Auxiliary Basis Set <=

  Basis Set: (AUG-CC-PVTZ AUX)
    Blend: AUG-CC-PVTZ-JKFIT
    Number of shells: 318
    Number of basis functions: 1072
    Number of Cartesian functions: 1315
    Spherical Harmonics?: true
    Max angular momentum: 4

  ==> CPHF Iterations <==

  => Iterations <=

             Iter  Converged  Remaining    Residual
  CGR           1          0          1   8.320E-02
  CGR           2          0          1   1.277E-02
  CGR           3          0          1   2.872E-03
  CGR           4          0          1   8.215E-04
  CGR           5          0          1   1.454E-04
  CGR           6          0          1   3.161E-05
  CGR           7          0          1   5.951E-06
  CGR           8          0          1   1.782E-06
  CGR           9          1          0   4.392E-07

    CGRSolver converged.

	-----------------------------------------------------------
	 ==================> DF-MP2 Energies <==================== 
	-----------------------------------------------------------
	 Reference Energy          =    -196.4036130553182886 [Eh]
	 Singles Energy            =      -0.0000000000000000 [Eh]
	 Same-Spin Energy          =      -0.2076557543892928 [Eh]
	 Opposite-Spin Energy      =      -0.7932890500467783 [Eh]
	 Correlation Energy        =      -1.0009448044360711 [Eh]
	 Total Energy              =    -197.4045578597543624 [Eh]
	-----------------------------------------------------------
	 ================> DF-SCS-MP2 Energies <================== 
	-----------------------------------------------------------
	 SCS Same-Spin Scale       =       0.3333333333333333 [-]
	 SCS Opposite-Spin Scale   =       1.2000000000000000 [-]
	 SCS Same-Spin Energy      =      -0.0692185847964309 [Eh]
	 SCS Opposite-Spin Energy  =      -0.9519468600561339 [Eh]
	 SCS Correlation Energy    =      -1.0211654448525649 [Eh]
	 SCS Total Energy          =    -197.4247785001708451 [Eh]
	-----------------------------------------------------------



Properties will be evaluated at   0.000000,   0.000000,   0.000000 [a0]

Properties computed using the MP2 density matrix

  Nuclear Dipole Moment: [e a0]
     X:     0.0313      Y:    -0.5297      Z:     0.0000

  Electronic Dipole Moment: [e a0]
     X:    -0.0316      Y:     0.5630      Z:    -0.0000

  Dipole Moment: [e a0]
     X:    -0.0003      Y:     0.0333      Z:    -0.0000     Total:     0.0333

  Dipole Moment: [D]
     X:    -0.0007      Y:     0.0846      Z:    -0.0000     Total:     0.0846


*** tstop() called on c468-104.stampede2.tacc.utexas.edu at Thu Mar 18 23:24:56 2021
Module time:
	user time   =     505.79 seconds =       8.43 minutes
	system time =       8.95 seconds =       0.15 minutes
	total time  =         84 seconds =       1.40 minutes
Total time:
	user time   =     644.00 seconds =      10.73 minutes
	system time =      13.77 seconds =       0.23 minutes
	total time  =        111 seconds =       1.85 minutes

    Psi4 stopped on: Thursday, 18 March 2021 11:24PM
    Psi4 wall time for execution: 0:01:51.38

*** Psi4 exiting successfully. Buy a developer a beer!
