
    -----------------------------------------------------------------------
          Psi4: An Open-Source Ab Initio Electronic Structure Package
                               Psi4 1.4a3.dev225 

                         Git: Rev {master} 7105e37 


    D. G. A. Smith, L. A. Burns, A. C. Simmonett, R. M. Parrish,
    M. C. Schieber, R. Galvelis, P. Kraus, H. Kruse, R. Di Remigio,
    A. Alenaizan, A. M. James, S. Lehtola, J. P. Misiewicz, M. Scheurer,
    R. A. Shaw, J. B. Schriber, Y. Xie, Z. L. Glick, D. A. Sirianni,
    J. S. O'Brien, J. M. Waldrop, A. Kumar, E. G. Hohenstein,
    B. P. Pritchard, B. R. Brooks, H. F. Schaefer III, A. Yu. Sokolov,
    K. Patkowski, A. E. DePrince III, U. Bozkaya, R. A. King,
    F. A. Evangelista, J. M. Turney, T. D. Crawford, C. D. Sherrill,
    J. Chem. Phys. 152(18) 184108 (2020). https://doi.org/10.1063/5.0006002

                            Additional Code Authors
    E. T. Seidl, C. L. Janssen, E. F. Valeev, M. L. Leininger,
    J. F. Gonthier, R. M. Richard, H. R. McAlexander, M. Saitow, X. Wang,
    P. Verma, and M. H. Lechner

             Previous Authors, Complete List of Code Contributors,
                       and Citations for Specific Modules
    https://github.com/psi4/psi4/blob/master/codemeta.json
    https://github.com/psi4/psi4/graphs/contributors
    http://psicode.org/psi4manual/master/introduction.html#citing-psifour

    -----------------------------------------------------------------------


    Psi4 started on: Friday, 19 March 2021 08:01PM

    Process ID: 122940
    Host:       c466-083.stampede2.tacc.utexas.edu
    PSIDATADIR: /home1/07844/xy3866/miniconda3/envs/p4env/share/psi4
    Memory:     500.0 MiB
    Threads:    32
    
  ==> Input File <==

--------------------------------------------------------------------------
#psi4
#
memory 32 gb

molecule  {
0 1
  S        2.2579050    -0.2727850    -0.2934720
  O       -2.2550500    -0.6937950    -0.5626610
  O       -0.5937490    -1.5240650     0.7322790
  N       -1.2606540     1.7474040     0.2743750
  C       -0.3743580     0.7050630    -0.2599560
  C        0.9828610     0.8061940     0.4218890
  C       -1.0472330    -0.6418876     0.0450336
  H       -0.2310980     0.7525420    -1.3524390
  H        1.3604840     1.8262480     0.3009370
  H        0.8701350     0.6147610     1.4903210
  H       -2.1753310     1.6691650    -0.1685200
  H       -0.8883350     2.6612490     0.0175910
  H        1.7689400    -1.4123290     0.2119310
  H       -2.6364810    -1.5574560    -0.2998170
units angstrom
no_reorient  #important for SAPT in psi4, default
symmetry c1  #important for SAPT in psi4, default
}

set PROPERTIES_ORIGIN ["COM"]
properties('MP2/aug-cc-pvtz', properties = ['dipole'])
--------------------------------------------------------------------------

  Memory set to  29.802 GiB by Python driver.
    SCF Algorithm Type (re)set to DF.

*** tstart() called on c466-083.stampede2.tacc.utexas.edu
*** at Fri Mar 19 20:01:40 2021

   => Loading Basis Set <=

    Name: AUG-CC-PVTZ
    Role: ORBITAL
    Keyword: BASIS
    atoms 1    entry S          line   906 file /home1/07844/xy3866/miniconda3/envs/p4env/share/psi4/basis/aug-cc-pvtz.gbs 
    atoms 2-3  entry O          line   331 file /home1/07844/xy3866/miniconda3/envs/p4env/share/psi4/basis/aug-cc-pvtz.gbs 
    atoms 4    entry N          line   285 file /home1/07844/xy3866/miniconda3/envs/p4env/share/psi4/basis/aug-cc-pvtz.gbs 
    atoms 5-7  entry C          line   239 file /home1/07844/xy3866/miniconda3/envs/p4env/share/psi4/basis/aug-cc-pvtz.gbs 
    atoms 8-14 entry H          line    40 file /home1/07844/xy3866/miniconda3/envs/p4env/share/psi4/basis/aug-cc-pvtz.gbs 


         ---------------------------------------------------------
                                   SCF
               by Justin Turney, Rob Parrish, Andy Simmonett
                          and Daniel G. A. Smith
                              RHF Reference
                       32 Threads,  30517 MiB Core
         ---------------------------------------------------------

  ==> Geometry <==

    Molecular point group: c1
    Full point group: C1

    Geometry (in Angstrom), charge = 0, multiplicity = 1:

       Center              X                  Y                   Z               Mass       
    ------------   -----------------  -----------------  -----------------  -----------------
         S            2.243370101062    -0.233909478819    -0.292293509907    31.972071174400
         O           -2.269584898938    -0.654919478819    -0.561482509907    15.994914619570
         O           -0.608283898938    -1.485189478819     0.733457490093    15.994914619570
         N           -1.275188898938     1.786279521181     0.275553490093    14.003074004430
         C           -0.388892898938     0.743938521181    -0.258777509907    12.000000000000
         C            0.968326101062     0.845069521181     0.423067490093    12.000000000000
         C           -1.061767898938    -0.603012078819     0.046212090093    12.000000000000
         H           -0.245632898938     0.791417521181    -1.351260509907     1.007825032230
         H            1.345949101062     1.865123521181     0.302115490093     1.007825032230
         H            0.855600101062     0.653636521181     1.491499490093     1.007825032230
         H           -2.189865898938     1.708040521181    -0.167341509907     1.007825032230
         H           -0.902869898938     2.700124521181     0.018769490093     1.007825032230
         H            1.754405101062    -1.373453478819     0.213109490093     1.007825032230
         H           -2.651015898938    -1.518580478819    -0.298638509907     1.007825032230

  Running in c1 symmetry.

  Rotational constants: A =      0.11096  B =      0.04932  C =      0.03794 [cm^-1]
  Rotational constants: A =   3326.53982  B =   1478.50151  C =   1137.43169 [MHz]
  Nuclear repulsion =  380.124324469204055

  Charge       = 0
  Multiplicity = 1
  Electrons    = 64
  Nalpha       = 32
  Nbeta        = 32

  ==> Algorithm <==

  SCF Algorithm Type is DF.
  DIIS enabled.
  MOM disabled.
  Fractional occupation disabled.
  Guess Type is SAD.
  Energy threshold   = 1.00e-10
  Density threshold  = 1.00e-10
  Integral threshold = 1.00e-12

  ==> Primary Basis <==

  Basis Set: AUG-CC-PVTZ
    Blend: AUG-CC-PVTZ
    Number of shells: 163
    Number of basis functions: 487
    Number of Cartesian functions: 564
    Spherical Harmonics?: true
    Max angular momentum: 3

   => Loading Basis Set <=

    Name: (AUG-CC-PVTZ AUX)
    Role: JKFIT
    Keyword: DF_BASIS_SCF
    atoms 1    entry S          line   730 file /home1/07844/xy3866/miniconda3/envs/p4env/share/psi4/basis/aug-cc-pvtz-jkfit.gbs 
    atoms 2-3  entry O          line   286 file /home1/07844/xy3866/miniconda3/envs/p4env/share/psi4/basis/aug-cc-pvtz-jkfit.gbs 
    atoms 4    entry N          line   224 file /home1/07844/xy3866/miniconda3/envs/p4env/share/psi4/basis/aug-cc-pvtz-jkfit.gbs 
    atoms 5-7  entry C          line   162 file /home1/07844/xy3866/miniconda3/envs/p4env/share/psi4/basis/aug-cc-pvtz-jkfit.gbs 
    atoms 8-14 entry H          line    70 file /home1/07844/xy3866/miniconda3/envs/p4env/share/psi4/basis/aug-cc-pvtz-jkfit.gbs 

  ==> Integral Setup <==

  DFHelper Memory: AOs need 1.977 GiB; user supplied 22.352 GiB. Using in-core AOs.

  ==> MemDFJK: Density-Fitted J/K Matrices <==

    J tasked:                   Yes
    K tasked:                   Yes
    wK tasked:                   No
    OpenMP threads:              32
    Memory [MiB]:             22888
    Algorithm:                 Core
    Schwarz Cutoff:           1E-12
    Mask sparsity (%):       3.3849
    Fitting Condition:        1E-10

   => Auxiliary Basis Set <=

  Basis Set: (AUG-CC-PVTZ AUX)
    Blend: AUG-CC-PVTZ-JKFIT
    Number of shells: 320
    Number of basis functions: 1092
    Number of Cartesian functions: 1351
    Spherical Harmonics?: true
    Max angular momentum: 4

  Minimum eigenvalue in the overlap matrix is 7.3991174458E-06.
  Reciprocal condition number of the overlap matrix is 4.2201570747E-07.
    Using symmetric orthogonalization.

  ==> Pre-Iterations <==

  SCF Guess: Superposition of Atomic Densities via on-the-fly atomic UHF (no occupation information).

   -------------------------
    Irrep   Nso     Nmo    
   -------------------------
     A        487     487 
   -------------------------
    Total     487     487
   -------------------------

  ==> Iterations <==

                           Total Energy        Delta E     RMS |[F,P]|

   @DF-RHF iter SAD:  -718.77529174737822   -7.18775e+02   0.00000e+00 
   @DF-RHF iter   1:  -719.29563896137665   -5.20347e-01   1.45365e-03 DIIS
   @DF-RHF iter   2:  -719.47566099280073   -1.80022e-01   8.41391e-04 DIIS
   @DF-RHF iter   3:  -719.53579729849685   -6.01363e-02   1.40109e-04 DIIS
   @DF-RHF iter   4:  -719.53912879603217   -3.33150e-03   6.59421e-05 DIIS
   @DF-RHF iter   5:  -719.53967364055939   -5.44845e-04   1.65183e-05 DIIS
   @DF-RHF iter   6:  -719.53973873285440   -6.50923e-05   6.41029e-06 DIIS
   @DF-RHF iter   7:  -719.53975036180930   -1.16290e-05   2.31391e-06 DIIS
   @DF-RHF iter   8:  -719.53975218754601   -1.82574e-06   9.51631e-07 DIIS
   @DF-RHF iter   9:  -719.53975246620303   -2.78657e-07   3.17683e-07 DIIS
   @DF-RHF iter  10:  -719.53975249574739   -2.95444e-08   9.91756e-08 DIIS
   @DF-RHF iter  11:  -719.53975249869768   -2.95029e-09   3.00416e-08 DIIS
   @DF-RHF iter  12:  -719.53975249893392   -2.36241e-10   1.04558e-08 DIIS
   @DF-RHF iter  13:  -719.53975249895996   -2.60343e-11   2.78238e-09 DIIS
   @DF-RHF iter  14:  -719.53975249896359   -3.63798e-12   9.09043e-10 DIIS
   @DF-RHF iter  15:  -719.53975249896257    1.02318e-12   3.40952e-10 DIIS
   @DF-RHF iter  16:  -719.53975249896109    1.47793e-12   1.38395e-10 DIIS
   @DF-RHF iter  17:  -719.53975249896337   -2.27374e-12   7.18417e-11 DIIS
  Energy and wave function converged.


  ==> Post-Iterations <==

    Orbital Energies [Eh]
    ---------------------

    Doubly Occupied:                                                      

       1A    -91.949659     2A    -20.630053     3A    -20.566378  
       4A    -15.568610     5A    -11.399788     6A    -11.293825  
       7A    -11.267445     8A     -8.951095     9A     -6.632462  
      10A     -6.631522    11A     -6.630532    12A     -1.478846  
      13A     -1.378391    14A     -1.214166    15A     -1.061907  
      16A     -0.960229    17A     -0.878240    18A     -0.791249  
      19A     -0.723240    20A     -0.715332    21A     -0.672380  
      22A     -0.656735    23A     -0.626737    24A     -0.604763  
      25A     -0.566314    26A     -0.555862    27A     -0.524981  
      28A     -0.498690    29A     -0.473454    30A     -0.449342  
      31A     -0.420968    32A     -0.358534  

    Virtual:                                                              

      33A      0.024267    34A      0.031506    35A      0.042558  
      36A      0.043893    37A      0.054056    38A      0.061834  
      39A      0.064551    40A      0.090151    41A      0.091831  
      42A      0.094993    43A      0.112496    44A      0.114824  
      45A      0.116362    46A      0.124876    47A      0.126540  
      48A      0.130958    49A      0.141339    50A      0.144926  
      51A      0.150894    52A      0.152997    53A      0.159212  
      54A      0.162863    55A      0.172487    56A      0.183105  
      57A      0.191165    58A      0.196415    59A      0.201657  
      60A      0.203934    61A      0.217157    62A      0.226203  
      63A      0.233874    64A      0.242484    65A      0.249293  
      66A      0.257679    67A      0.267152    68A      0.269334  
      69A      0.281033    70A      0.290402    71A      0.302150  
      72A      0.307057    73A      0.313082    74A      0.316863  
      75A      0.323005    76A      0.328904    77A      0.336526  
      78A      0.344838    79A      0.353953    80A      0.362310  
      81A      0.366340    82A      0.369390    83A      0.377844  
      84A      0.382596    85A      0.388862    86A      0.395766  
      87A      0.403911    88A      0.410890    89A      0.413184  
      90A      0.419320    91A      0.422319    92A      0.432010  
      93A      0.435039    94A      0.445264    95A      0.449249  
      96A      0.451526    97A      0.456127    98A      0.458883  
      99A      0.469310   100A      0.474402   101A      0.479676  
     102A      0.486756   103A      0.491280   104A      0.502488  
     105A      0.512069   106A      0.516732   107A      0.532469  
     108A      0.542692   109A      0.555456   110A      0.559421  
     111A      0.571587   112A      0.578907   113A      0.580058  
     114A      0.595835   115A      0.599416   116A      0.604610  
     117A      0.612491   118A      0.620307   119A      0.633812  
     120A      0.643759   121A      0.647588   122A      0.662951  
     123A      0.675384   124A      0.681582   125A      0.695853  
     126A      0.703645   127A      0.718123   128A      0.738388  
     129A      0.743801   130A      0.750836   131A      0.767773  
     132A      0.773299   133A      0.779587   134A      0.797875  
     135A      0.804492   136A      0.814187   137A      0.822394  
     138A      0.829708   139A      0.840118   140A      0.842243  
     141A      0.853879   142A      0.856744   143A      0.861315  
     144A      0.865492   145A      0.871119   146A      0.887272  
     147A      0.891244   148A      0.903172   149A      0.906438  
     150A      0.913452   151A      0.922598   152A      0.930771  
     153A      0.946707   154A      0.953014   155A      0.963590  
     156A      0.968255   157A      0.974879   158A      0.981674  
     159A      0.986647   160A      0.996419   161A      1.010776  
     162A      1.021170   163A      1.028155   164A      1.041159  
     165A      1.042830   166A      1.047405   167A      1.063559  
     168A      1.072799   169A      1.076854   170A      1.081436  
     171A      1.090064   172A      1.098266   173A      1.111202  
     174A      1.114395   175A      1.127642   176A      1.130828  
     177A      1.136521   178A      1.148766   179A      1.167290  
     180A      1.170109   181A      1.176111   182A      1.190290  
     183A      1.199471   184A      1.204829   185A      1.223156  
     186A      1.229919   187A      1.247136   188A      1.264094  
     189A      1.266659   190A      1.272602   191A      1.278137  
     192A      1.295917   193A      1.298980   194A      1.304581  
     195A      1.312506   196A      1.325717   197A      1.339780  
     198A      1.357097   199A      1.364656   200A      1.367759  
     201A      1.375808   202A      1.381587   203A      1.400010  
     204A      1.403985   205A      1.417581   206A      1.422631  
     207A      1.437263   208A      1.449875   209A      1.468831  
     210A      1.474842   211A      1.497845   212A      1.506991  
     213A      1.524349   214A      1.536190   215A      1.542624  
     216A      1.547060   217A      1.552820   218A      1.559841  
     219A      1.577386   220A      1.584985   221A      1.599307  
     222A      1.611936   223A      1.624817   224A      1.645698  
     225A      1.659830   226A      1.666361   227A      1.674266  
     228A      1.692528   229A      1.694485   230A      1.706742  
     231A      1.726459   232A      1.728758   233A      1.737066  
     234A      1.751799   235A      1.767755   236A      1.788663  
     237A      1.802176   238A      1.806150   239A      1.813091  
     240A      1.821181   241A      1.834597   242A      1.853737  
     243A      1.859891   244A      1.885619   245A      1.895920  
     246A      1.899569   247A      1.902307   248A      1.934285  
     249A      1.943852   250A      1.946439   251A      1.958240  
     252A      1.972000   253A      1.989593   254A      2.006690  
     255A      2.026167   256A      2.035221   257A      2.057702  
     258A      2.090076   259A      2.108258   260A      2.118378  
     261A      2.147074   262A      2.160790   263A      2.180682  
     264A      2.185237   265A      2.205428   266A      2.221857  
     267A      2.246083   268A      2.261974   269A      2.276119  
     270A      2.298301   271A      2.310341   272A      2.322067  
     273A      2.348589   274A      2.354797   275A      2.374167  
     276A      2.381289   277A      2.407161   278A      2.412569  
     279A      2.425793   280A      2.446052   281A      2.450617  
     282A      2.479116   283A      2.493845   284A      2.505401  
     285A      2.522989   286A      2.529882   287A      2.543594  
     288A      2.547586   289A      2.564925   290A      2.575963  
     291A      2.577424   292A      2.592552   293A      2.606424  
     294A      2.617059   295A      2.621777   296A      2.651694  
     297A      2.657971   298A      2.658562   299A      2.686005  
     300A      2.708190   301A      2.744671   302A      2.754940  
     303A      2.762382   304A      2.778110   305A      2.792884  
     306A      2.821342   307A      2.839603   308A      2.845297  
     309A      2.865823   310A      2.892302   311A      2.927780  
     312A      2.946790   313A      2.998748   314A      3.038519  
     315A      3.039646   316A      3.067889   317A      3.087159  
     318A      3.096958   319A      3.112341   320A      3.141303  
     321A      3.179395   322A      3.203158   323A      3.219108  
     324A      3.235709   325A      3.308323   326A      3.388491  
     327A      3.405413   328A      3.426390   329A      3.486264  
     330A      3.505762   331A      3.506889   332A      3.571877  
     333A      3.608323   334A      3.613552   335A      3.636849  
     336A      3.662918   337A      3.685539   338A      3.694447  
     339A      3.725583   340A      3.758799   341A      3.771906  
     342A      3.804978   343A      3.810818   344A      3.838242  
     345A      3.848334   346A      3.871606   347A      3.913500  
     348A      3.918375   349A      3.940452   350A      3.962543  
     351A      3.985032   352A      3.991975   353A      4.004566  
     354A      4.024926   355A      4.037522   356A      4.062342  
     357A      4.087667   358A      4.114734   359A      4.131510  
     360A      4.154828   361A      4.176101   362A      4.181695  
     363A      4.205709   364A      4.221453   365A      4.233271  
     366A      4.255891   367A      4.267068   368A      4.270337  
     369A      4.304543   370A      4.328131   371A      4.341617  
     372A      4.347911   373A      4.367117   374A      4.386961  
     375A      4.404593   376A      4.415564   377A      4.443412  
     378A      4.464596   379A      4.469541   380A      4.491119  
     381A      4.496227   382A      4.524649   383A      4.533029  
     384A      4.544076   385A      4.571984   386A      4.588446  
     387A      4.614079   388A      4.620987   389A      4.637681  
     390A      4.655003   391A      4.660823   392A      4.680702  
     393A      4.701414   394A      4.720966   395A      4.763680  
     396A      4.788066   397A      4.805407   398A      4.831227  
     399A      4.847800   400A      4.860445   401A      4.884169  
     402A      4.913503   403A      4.952701   404A      4.972304  
     405A      4.978842   406A      5.013038   407A      5.030918  
     408A      5.056008   409A      5.076969   410A      5.096322  
     411A      5.124744   412A      5.128695   413A      5.152643  
     414A      5.184826   415A      5.217113   416A      5.241999  
     417A      5.253196   418A      5.279936   419A      5.307545  
     420A      5.335833   421A      5.348460   422A      5.373147  
     423A      5.397221   424A      5.425430   425A      5.451200  
     426A      5.482571   427A      5.519412   428A      5.521614  
     429A      5.556075   430A      5.579494   431A      5.657017  
     432A      5.667779   433A      5.755126   434A      5.798581  
     435A      5.810106   436A      5.839019   437A      5.944360  
     438A      5.978541   439A      6.017492   440A      6.054439  
     441A      6.069563   442A      6.114571   443A      6.176708  
     444A      6.255745   445A      6.301559   446A      6.343409  
     447A      6.379952   448A      6.421564   449A      6.467481  
     450A      6.643809   451A      6.732333   452A      6.786751  
     453A      6.818326   454A      6.823866   455A      6.851548  
     456A      6.865293   457A      6.890639   458A      6.922950  
     459A      7.032587   460A      7.064044   461A      7.101798  
     462A      7.181660   463A      7.241342   464A      7.263663  
     465A      7.329548   466A      7.363820   467A      7.406263  
     468A      7.430189   469A      7.453389   470A      7.567724  
     471A      7.586859   472A      7.654403   473A      7.707483  
     474A      7.742238   475A      7.844719   476A      7.883180  
     477A      8.011979   478A      8.060811   479A      8.247891  
     480A      8.308990   481A      8.544570   482A     15.398613  
     483A     16.118115   484A     16.866724   485A     17.403622  
     486A     18.265755   487A     19.693823  

    Final Occupation by Irrep:
              A 
    DOCC [    32 ]

  @DF-RHF Final Energy:  -719.53975249896337

   => Energetics <=

    Nuclear Repulsion Energy =            380.1243244692040548
    One-Electron Energy =               -1745.0646934955063898
    Two-Electron Energy =                 645.4006165273389115
    Total Energy =                       -719.5397524989633666

Computation Completed

*** tstop() called on c466-083.stampede2.tacc.utexas.edu at Fri Mar 19 20:02:03 2021
Module time:
	user time   =     347.01 seconds =       5.78 minutes
	system time =      25.28 seconds =       0.42 minutes
	total time  =         23 seconds =       0.38 minutes
Total time:
	user time   =     347.01 seconds =       5.78 minutes
	system time =      25.28 seconds =       0.42 minutes
	total time  =         23 seconds =       0.38 minutes
   => Loading Basis Set <=

    Name: (AUG-CC-PVTZ AUX)
    Role: RIFIT
    Keyword: DF_BASIS_MP2
    atoms 1    entry S          line   666 file /home1/07844/xy3866/miniconda3/envs/p4env/share/psi4/basis/aug-cc-pvtz-ri.gbs 
    atoms 2-3  entry O          line   264 file /home1/07844/xy3866/miniconda3/envs/p4env/share/psi4/basis/aug-cc-pvtz-ri.gbs 
    atoms 4    entry N          line   206 file /home1/07844/xy3866/miniconda3/envs/p4env/share/psi4/basis/aug-cc-pvtz-ri.gbs 
    atoms 5-7  entry C          line   148 file /home1/07844/xy3866/miniconda3/envs/p4env/share/psi4/basis/aug-cc-pvtz-ri.gbs 
    atoms 8-14 entry H          line    30 file /home1/07844/xy3866/miniconda3/envs/p4env/share/psi4/basis/aug-cc-pvtz-ri.gbs 


*** tstart() called on c466-083.stampede2.tacc.utexas.edu
*** at Fri Mar 19 20:02:04 2021


  //>>>>>>>>>>>>>>>>>>>>>>>>>>>>>>>>>>>//
  //               DFMP2               //
  //<<<<<<<<<<<<<<<<<<<<<<<<<<<<<<<<<<<//

	 --------------------------------------------------------
	                          DF-MP2                         
	      2nd-Order Density-Fitted Moller-Plesset Theory     
	              RMP2 Wavefunction,  32 Threads             
	                                                         
	        Rob Parrish, Justin Turney, Andy Simmonett,      
	           Ed Hohenstein, and C. David Sherrill          
	 --------------------------------------------------------

   => Auxiliary Basis Set <=

  Basis Set: (AUG-CC-PVTZ AUX)
    Blend: AUG-CC-PVTZ-RI
    Number of shells: 303
    Number of basis functions: 1105
    Number of Cartesian functions: 1392
    Spherical Harmonics?: true
    Max angular momentum: 4

	 --------------------------------------------------------
	                 NBF =   487, NAUX =  1105
	 --------------------------------------------------------
	   CLASS    FOCC     OCC    AOCC    AVIR     VIR    FVIR
	   PAIRS       0      32      32     455     455       0
	 --------------------------------------------------------

  DFHelper Memory: AOs need 2.004 GiB; user supplied 22.352 GiB. Using in-core AOs.


         ------------------------------------------------------------
                                     CPHF                           
                                  Rob Parrish                       
         ------------------------------------------------------------

  ==> Geometry <==

    Molecular point group: c1
    Full point group: C1

    Geometry (in Angstrom), charge = 0, multiplicity = 1:

       Center              X                  Y                   Z               Mass       
    ------------   -----------------  -----------------  -----------------  -----------------
         S            2.243370101062    -0.233909478819    -0.292293509907    31.972071174400
         O           -2.269584898938    -0.654919478819    -0.561482509907    15.994914619570
         O           -0.608283898938    -1.485189478819     0.733457490093    15.994914619570
         N           -1.275188898938     1.786279521181     0.275553490093    14.003074004430
         C           -0.388892898938     0.743938521181    -0.258777509907    12.000000000000
         C            0.968326101062     0.845069521181     0.423067490093    12.000000000000
         C           -1.061767898938    -0.603012078819     0.046212090093    12.000000000000
         H           -0.245632898938     0.791417521181    -1.351260509907     1.007825032230
         H            1.345949101062     1.865123521181     0.302115490093     1.007825032230
         H            0.855600101062     0.653636521181     1.491499490093     1.007825032230
         H           -2.189865898938     1.708040521181    -0.167341509907     1.007825032230
         H           -0.902869898938     2.700124521181     0.018769490093     1.007825032230
         H            1.754405101062    -1.373453478819     0.213109490093     1.007825032230
         H           -2.651015898938    -1.518580478819    -0.298638509907     1.007825032230

  Nuclear repulsion =  380.124324469204055
  Reference energy  = -719.539752498963367

  ==> Basis Set <==

  Basis Set: AUG-CC-PVTZ
    Blend: AUG-CC-PVTZ
    Number of shells: 163
    Number of basis functions: 487
    Number of Cartesian functions: 564
    Spherical Harmonics?: true
    Max angular momentum: 3

  ==> CGRSolver (by Rob Parrish) <==

   Number of roots    =         1
   Preconditioning    =    JACOBI
   Convergence cutoff =     1E-06
   Maximum iterations =       100

  ==> CPHFRHamiltonian (by Rob Parrish) <== 

  ==> MemDFJK: Density-Fitted J/K Matrices <==

    J tasked:                   Yes
    K tasked:                   Yes
    wK tasked:                   No
    OpenMP threads:              32
    Memory [MiB]:             22888
    Algorithm:                 Core
    Schwarz Cutoff:           1E-12
    Mask sparsity (%):       2.0154
    Fitting Condition:        1E-10

   => Auxiliary Basis Set <=

  Basis Set: (AUG-CC-PVTZ AUX)
    Blend: AUG-CC-PVTZ-JKFIT
    Number of shells: 320
    Number of basis functions: 1092
    Number of Cartesian functions: 1351
    Spherical Harmonics?: true
    Max angular momentum: 4

  ==> CPHF Iterations <==

  => Iterations <=

             Iter  Converged  Remaining    Residual
  CGR           1          0          1   1.116E-01
  CGR           2          0          1   2.943E-02
  CGR           3          0          1   1.169E-02
  CGR           4          0          1   3.393E-03
  CGR           5          0          1   1.220E-03
  CGR           6          0          1   3.286E-04
  CGR           7          0          1   1.067E-04
  CGR           8          0          1   3.577E-05
  CGR           9          0          1   1.275E-05
  CGR          10          0          1   5.524E-06
  CGR          11          0          1   1.847E-06
  CGR          12          1          0   6.124E-07

    CGRSolver converged.

	-----------------------------------------------------------
	 ==================> DF-MP2 Energies <==================== 
	-----------------------------------------------------------
	 Reference Energy          =    -719.5397524989633666 [Eh]
	 Singles Energy            =      -0.0000000000000000 [Eh]
	 Same-Spin Energy          =      -0.3744226492213744 [Eh]
	 Opposite-Spin Energy      =      -1.1586497961987847 [Eh]
	 Correlation Energy        =      -1.5330724454201592 [Eh]
	 Total Energy              =    -721.0728249443835693 [Eh]
	-----------------------------------------------------------
	 ================> DF-SCS-MP2 Energies <================== 
	-----------------------------------------------------------
	 SCS Same-Spin Scale       =       0.3333333333333333 [-]
	 SCS Opposite-Spin Scale   =       1.2000000000000000 [-]
	 SCS Same-Spin Energy      =      -0.1248075497404581 [Eh]
	 SCS Opposite-Spin Energy  =      -1.3903797554385415 [Eh]
	 SCS Correlation Energy    =      -1.5151873051789997 [Eh]
	 SCS Total Energy          =    -721.0549398041423501 [Eh]
	-----------------------------------------------------------



Properties will be evaluated at  -0.000000,   0.000000,  -0.000000 [a0]

Properties computed using the MP2 density matrix

  Nuclear Dipole Moment: [e a0]
     X:    -1.8572      Y:     4.5029      Z:     0.1875

  Electronic Dipole Moment: [e a0]
     X:     1.0380      Y:    -4.0317      Z:    -0.6572

  Dipole Moment: [e a0]
     X:    -0.8192      Y:     0.4712      Z:    -0.4697     Total:     1.0553

  Dipole Moment: [D]
     X:    -2.0822      Y:     1.1977      Z:    -1.1939     Total:     2.6824


*** tstop() called on c466-083.stampede2.tacc.utexas.edu at Fri Mar 19 20:04:27 2021
Module time:
	user time   =     867.36 seconds =      14.46 minutes
	system time =      34.50 seconds =       0.57 minutes
	total time  =        143 seconds =       2.38 minutes
Total time:
	user time   =    1215.07 seconds =      20.25 minutes
	system time =      59.80 seconds =       1.00 minutes
	total time  =        167 seconds =       2.78 minutes

    Psi4 stopped on: Friday, 19 March 2021 08:04PM
    Psi4 wall time for execution: 0:02:47.08

*** Psi4 exiting successfully. Buy a developer a beer!
