
    -----------------------------------------------------------------------
          Psi4: An Open-Source Ab Initio Electronic Structure Package
                               Psi4 1.3.2 release

                         Git: Rev {HEAD} ecbda83 


    R. M. Parrish, L. A. Burns, D. G. A. Smith, A. C. Simmonett,
    A. E. DePrince III, E. G. Hohenstein, U. Bozkaya, A. Yu. Sokolov,
    R. Di Remigio, R. M. Richard, J. F. Gonthier, A. M. James,
    H. R. McAlexander, A. Kumar, M. Saitow, X. Wang, B. P. Pritchard,
    P. Verma, H. F. Schaefer III, K. Patkowski, R. A. King, E. F. Valeev,
    F. A. Evangelista, J. M. Turney, T. D. Crawford, and C. D. Sherrill,
    J. Chem. Theory Comput. 13(7) pp 3185--3197 (2017).
    (doi: 10.1021/acs.jctc.7b00174)


                         Additional Contributions by
    P. Kraus, H. Kruse, M. H. Lechner, M. C. Schieber, R. A. Shaw,
    A. Alenaizan, R. Galvelis, Z. L. Glick, S. Lehtola, and J. P. Misiewicz

    -----------------------------------------------------------------------


    Psi4 started on: Thursday, 05 November 2020 11:36PM

    Process ID: 10085
    Host:       node142.bme.utexas.edu
    PSIDATADIR: /home/xy3866/psi4conda/share/psi4
    Memory:     500.0 MiB
    Threads:    8
    
  ==> Input File <==

--------------------------------------------------------------------------
#psi4
#
memory 32 gb

molecule  {
0 1
  S        2.2579180    -0.2726900    -0.2934460
  O       -2.2551230    -0.6936910    -0.5624970
  O       -0.5935940    -1.5242440     0.7320250
  N       -1.2274983     1.7827957     0.2578397
  C       -0.3743770     0.7050360    -0.2599020
  C        0.9828140     0.8061630     0.4219110
  C       -1.0384360    -0.6244090     0.0410490
  H       -0.2310720     0.7525000    -1.3524110
  H        1.3604600     1.8262100     0.3009430
  H        0.8701070     0.6147400     1.4903500
  H       -2.1754500     1.6690270    -0.1683570
  H       -0.8885410     2.6612730     0.0174870
  H        1.7688800    -1.4122240     0.2118940
  H       -2.6365250    -1.5573750    -0.2997250
units angstrom
no_reorient  #important for SAPT in psi4, default
symmetry c1  #important for SAPT in psi4, default
}

set PROPERTIES_ORIGIN ["COM"]
properties('MP2/aug-cc-pvtz', properties = ['dipole'])
--------------------------------------------------------------------------

  Memory set to  29.802 GiB by Python driver.
    SCF Algorithm Type (re)set to DF.

*** tstart() called on node142.bme.utexas.edu
*** at Thu Nov  5 23:36:33 2020

   => Loading Basis Set <=

    Name: AUG-CC-PVTZ
    Role: ORBITAL
    Keyword: BASIS
    atoms 1    entry S          line   902 file /home/xy3866/psi4conda/share/psi4/basis/aug-cc-pvtz.gbs 
    atoms 2-3  entry O          line   327 file /home/xy3866/psi4conda/share/psi4/basis/aug-cc-pvtz.gbs 
    atoms 4    entry N          line   281 file /home/xy3866/psi4conda/share/psi4/basis/aug-cc-pvtz.gbs 
    atoms 5-7  entry C          line   235 file /home/xy3866/psi4conda/share/psi4/basis/aug-cc-pvtz.gbs 
    atoms 8-14 entry H          line    36 file /home/xy3866/psi4conda/share/psi4/basis/aug-cc-pvtz.gbs 


         ---------------------------------------------------------
                                   SCF
               by Justin Turney, Rob Parrish, Andy Simmonett
                          and Daniel G. A. Smith
                              RHF Reference
                        8 Threads,  30517 MiB Core
         ---------------------------------------------------------

  ==> Geometry <==

    Molecular point group: c1
    Full point group: C1

    Geometry (in Angstrom), charge = 0, multiplicity = 1:

       Center              X                  Y                   Z               Mass       
    ------------   -----------------  -----------------  -----------------  -----------------
         S            2.238670462159    -0.239651941693    -0.289963108238    31.972071174400
         O           -2.274370537841    -0.660652941693    -0.559014108238    15.994914619570
         O           -0.612841537841    -1.491205941693     0.735507891762    15.994914619570
         N           -1.246745837841     1.815833758307     0.261322591762    14.003074004430
         C           -0.393624537841     0.738074058307    -0.256419108238    12.000000000000
         C            0.963566462159     0.839201058307     0.425393891762    12.000000000000
         C           -1.057683537841    -0.591370941693     0.044531891762    12.000000000000
         H           -0.250319537841     0.785538058307    -1.348928108238     1.007825032230
         H            1.341212462159     1.859248058307     0.304425891762     1.007825032230
         H            0.850859462159     0.647778058307     1.493832891762     1.007825032230
         H           -2.194697537841     1.702065058307    -0.164874108238     1.007825032230
         H           -0.907788537841     2.694311058307     0.020969891762     1.007825032230
         H            1.749632462159    -1.379185941693     0.215376891762     1.007825032230
         H           -2.655772537841    -1.524336941693    -0.296242108238     1.007825032230

  Running in c1 symmetry.

  Rotational constants: A =      0.10994  B =      0.04954  C =      0.03793 [cm^-1]
  Rotational constants: A =   3295.93416  B =   1485.15984  C =   1137.07685 [MHz]
  Nuclear repulsion =  380.039258138305968

  Charge       = 0
  Multiplicity = 1
  Electrons    = 64
  Nalpha       = 32
  Nbeta        = 32

  ==> Algorithm <==

  SCF Algorithm Type is DF.
  DIIS enabled.
  MOM disabled.
  Fractional occupation disabled.
  Guess Type is SAD.
  Energy threshold   = 1.00e-10
  Density threshold  = 1.00e-10
  Integral threshold = 0.00e+00

  ==> Primary Basis <==

  Basis Set: AUG-CC-PVTZ
    Blend: AUG-CC-PVTZ
    Number of shells: 163
    Number of basis function: 487
    Number of Cartesian functions: 564
    Spherical Harmonics?: true
    Max angular momentum: 3

   => Loading Basis Set <=

    Name: (AUG-CC-PVTZ AUX)
    Role: JKFIT
    Keyword: DF_BASIS_SCF
    atoms 1    entry S          line   730 file /home/xy3866/psi4conda/share/psi4/basis/aug-cc-pvtz-jkfit.gbs 
    atoms 2-3  entry O          line   286 file /home/xy3866/psi4conda/share/psi4/basis/aug-cc-pvtz-jkfit.gbs 
    atoms 4    entry N          line   224 file /home/xy3866/psi4conda/share/psi4/basis/aug-cc-pvtz-jkfit.gbs 
    atoms 5-7  entry C          line   162 file /home/xy3866/psi4conda/share/psi4/basis/aug-cc-pvtz-jkfit.gbs 
    atoms 8-14 entry H          line    70 file /home/xy3866/psi4conda/share/psi4/basis/aug-cc-pvtz-jkfit.gbs 

  ==> Pre-Iterations <==

   -------------------------------------------------------
    Irrep   Nso     Nmo     Nalpha   Nbeta   Ndocc  Nsocc
   -------------------------------------------------------
     A        487     487       0       0       0       0
   -------------------------------------------------------
    Total     487     487      32      32      32       0
   -------------------------------------------------------

  ==> Integral Setup <==

  DFHelper Memory: AOs need 1.961 GiB; user supplied 22.352 GiB. Using in-core AOs.

  ==> MemDFJK: Density-Fitted J/K Matrices <==

    J tasked:                   Yes
    K tasked:                   Yes
    wK tasked:                   No
    OpenMP threads:               8
    Memory [MiB]:             22888
    Algorithm:                 Disk
    Schwarz Cutoff:           1E-12
    Mask sparsity (%):       2.0163
    Fitting Condition:        1E-10

   => Auxiliary Basis Set <=

  Basis Set: (AUG-CC-PVTZ AUX)
    Blend: AUG-CC-PVTZ-JKFIT
    Number of shells: 320
    Number of basis function: 1092
    Number of Cartesian functions: 1351
    Spherical Harmonics?: true
    Max angular momentum: 4

  Minimum eigenvalue in the overlap matrix is 7.1893276789E-06.
  Using Symmetric Orthogonalization.

  SCF Guess: Superposition of Atomic Densities via on-the-fly atomic UHF.

  ==> Iterations <==

                           Total Energy        Delta E     RMS |[F,P]|

   @DF-RHF iter SAD:  -718.77009043202452   -7.18770e+02   0.00000e+00 
   @DF-RHF iter   1:  -719.29142968444444   -5.21339e-01   1.45964e-03 DIIS
   @DF-RHF iter   2:  -719.47117991085452   -1.79750e-01   8.51594e-04 DIIS
   @DF-RHF iter   3:  -719.53255971492808   -6.13798e-02   1.44064e-04 DIIS
   @DF-RHF iter   4:  -719.53595305335966   -3.39334e-03   6.90194e-05 DIIS
   @DF-RHF iter   5:  -719.53654752037994   -5.94467e-04   1.66174e-05 DIIS
   @DF-RHF iter   6:  -719.53661463035223   -6.71100e-05   6.52224e-06 DIIS
   @DF-RHF iter   7:  -719.53662687184419   -1.22415e-05   2.41394e-06 DIIS
   @DF-RHF iter   8:  -719.53662886161283   -1.98977e-06   1.01431e-06 DIIS
   @DF-RHF iter   9:  -719.53662918096484   -3.19352e-07   3.42410e-07 DIIS
   @DF-RHF iter  10:  -719.53662921590853   -3.49437e-08   1.07275e-07 DIIS
   @DF-RHF iter  11:  -719.53662921939303   -3.48450e-09   3.28725e-08 DIIS
   @DF-RHF iter  12:  -719.53662921967396   -2.80920e-10   1.11142e-08 DIIS
   @DF-RHF iter  13:  -719.53662921970317   -2.92175e-11   2.89455e-09 DIIS
   @DF-RHF iter  14:  -719.53662921970533   -2.16005e-12   8.89167e-10 DIIS
   @DF-RHF iter  15:  -719.53662921970670   -1.36424e-12   2.90149e-10 DIIS
   @DF-RHF iter  16:  -719.53662921970931   -2.61480e-12   8.87694e-11 DIIS
  Energy and wave function converged.


  ==> Post-Iterations <==

    Orbital Energies [Eh]
    ---------------------

    Doubly Occupied:                                                      

       1A    -91.949325     2A    -20.629448     3A    -20.567058  
       4A    -15.566327     5A    -11.403147     6A    -11.294970  
       7A    -11.267758     8A     -8.950798     9A     -6.632165  
      10A     -6.631227    11A     -6.630237    12A     -1.474618  
      13A     -1.371995    14A     -1.217713    15A     -1.063713  
      16A     -0.966795    17A     -0.878911    18A     -0.791934  
      19A     -0.721775    20A     -0.716806    21A     -0.676694  
      22A     -0.656834    23A     -0.624946    24A     -0.606514  
      25A     -0.567470    26A     -0.556774    27A     -0.523834  
      28A     -0.495529    29A     -0.476517    30A     -0.449276  
      31A     -0.420067    32A     -0.358323  

    Virtual:                                                              

      33A      0.024229    34A      0.031535    35A      0.042515  
      36A      0.043911    37A      0.054143    38A      0.061743  
      39A      0.064553    40A      0.090269    41A      0.091887  
      42A      0.095093    43A      0.112423    44A      0.114737  
      45A      0.116467    46A      0.125123    47A      0.126606  
      48A      0.130846    49A      0.141261    50A      0.144441  
      51A      0.150189    52A      0.152210    53A      0.156987  
      54A      0.162674    55A      0.171745    56A      0.182619  
      57A      0.191005    58A      0.196058    59A      0.201916  
      60A      0.203951    61A      0.217401    62A      0.225578  
      63A      0.234029    64A      0.242539    65A      0.248677  
      66A      0.257802    67A      0.266237    68A      0.268834  
      69A      0.282652    70A      0.290276    71A      0.302299  
      72A      0.307757    73A      0.313363    74A      0.316664  
      75A      0.323183    76A      0.329008    77A      0.337524  
      78A      0.345460    79A      0.354937    80A      0.362391  
      81A      0.366001    82A      0.370169    83A      0.377494  
      84A      0.382113    85A      0.389324    86A      0.395738  
      87A      0.404096    88A      0.410946    89A      0.412938  
      90A      0.417574    91A      0.422535    92A      0.431199  
      93A      0.434674    94A      0.445017    95A      0.448645  
      96A      0.450830    97A      0.455503    98A      0.457919  
      99A      0.469199   100A      0.474989   101A      0.478181  
     102A      0.488375   103A      0.491138   104A      0.503722  
     105A      0.512498   106A      0.516728   107A      0.532897  
     108A      0.544235   109A      0.554549   110A      0.560496  
     111A      0.571859   112A      0.578398   113A      0.580047  
     114A      0.595838   115A      0.600652   116A      0.604158  
     117A      0.612391   118A      0.619932   119A      0.636759  
     120A      0.644959   121A      0.649174   122A      0.661766  
     123A      0.673820   124A      0.681459   125A      0.695326  
     126A      0.705096   127A      0.715661   128A      0.737483  
     129A      0.746519   130A      0.750190   131A      0.767523  
     132A      0.773630   133A      0.780924   134A      0.796325  
     135A      0.805314   136A      0.813449   137A      0.821482  
     138A      0.828784   139A      0.840437   140A      0.842363  
     141A      0.854082   142A      0.856472   143A      0.859848  
     144A      0.864824   145A      0.869599   146A      0.887018  
     147A      0.892183   148A      0.902447   149A      0.905198  
     150A      0.913821   151A      0.923488   152A      0.930657  
     153A      0.945062   154A      0.953102   155A      0.963796  
     156A      0.967774   157A      0.976303   158A      0.981260  
     159A      0.985962   160A      0.996873   161A      1.011137  
     162A      1.020995   163A      1.028654   164A      1.041247  
     165A      1.046667   166A      1.047090   167A      1.062782  
     168A      1.072636   169A      1.076513   170A      1.081959  
     171A      1.090196   172A      1.097408   173A      1.112511  
     174A      1.115314   175A      1.125607   176A      1.131386  
     177A      1.137913   178A      1.149612   179A      1.166562  
     180A      1.169755   181A      1.175927   182A      1.191054  
     183A      1.195800   184A      1.207286   185A      1.222746  
     186A      1.230490   187A      1.251876   188A      1.263866  
     189A      1.267462   190A      1.272806   191A      1.277314  
     192A      1.294745   193A      1.300757   194A      1.306436  
     195A      1.316135   196A      1.327369   197A      1.340568  
     198A      1.356269   199A      1.365396   200A      1.367546  
     201A      1.375920   202A      1.382096   203A      1.398277  
     204A      1.402429   205A      1.417620   206A      1.422464  
     207A      1.436113   208A      1.451422   209A      1.469379  
     210A      1.475148   211A      1.501303   212A      1.506865  
     213A      1.524417   214A      1.537439   215A      1.542451  
     216A      1.546681   217A      1.552445   218A      1.564011  
     219A      1.577784   220A      1.582569   221A      1.600661  
     222A      1.611259   223A      1.624411   224A      1.647037  
     225A      1.659238   226A      1.665056   227A      1.677081  
     228A      1.692501   229A      1.694558   230A      1.705237  
     231A      1.727033   232A      1.728109   233A      1.736887  
     234A      1.752333   235A      1.768067   236A      1.788448  
     237A      1.802937   238A      1.809697   239A      1.813483  
     240A      1.821192   241A      1.835675   242A      1.854982  
     243A      1.859660   244A      1.885700   245A      1.894916  
     246A      1.899122   247A      1.902210   248A      1.940607  
     249A      1.942265   250A      1.945929   251A      1.955746  
     252A      1.971080   253A      1.985835   254A      2.009457  
     255A      2.029829   256A      2.036631   257A      2.054692  
     258A      2.090109   259A      2.101102   260A      2.119237  
     261A      2.147846   262A      2.161325   263A      2.182813  
     264A      2.193091   265A      2.205501   266A      2.221003  
     267A      2.245104   268A      2.266109   269A      2.286883  
     270A      2.297345   271A      2.313148   272A      2.321537  
     273A      2.352501   274A      2.363044   275A      2.376298  
     276A      2.381387   277A      2.403100   278A      2.411874  
     279A      2.423277   280A      2.449599   281A      2.452276  
     282A      2.478006   283A      2.490723   284A      2.509941  
     285A      2.527952   286A      2.532039   287A      2.541532  
     288A      2.549155   289A      2.562254   290A      2.572959  
     291A      2.578664   292A      2.590579   293A      2.607910  
     294A      2.620398   295A      2.625801   296A      2.652502  
     297A      2.656361   298A      2.663419   299A      2.682862  
     300A      2.710321   301A      2.739268   302A      2.753133  
     303A      2.760654   304A      2.781905   305A      2.790739  
     306A      2.821282   307A      2.844122   308A      2.855573  
     309A      2.864993   310A      2.899128   311A      2.929167  
     312A      2.944056   313A      2.998523   314A      3.034026  
     315A      3.041711   316A      3.071425   317A      3.088084  
     318A      3.094986   319A      3.109529   320A      3.143280  
     321A      3.181391   322A      3.203997   323A      3.220735  
     324A      3.233636   325A      3.312946   326A      3.388202  
     327A      3.406517   328A      3.428366   329A      3.485038  
     330A      3.499530   331A      3.505220   332A      3.569128  
     333A      3.606429   334A      3.611536   335A      3.635307  
     336A      3.658763   337A      3.682804   338A      3.693425  
     339A      3.721954   340A      3.759818   341A      3.772486  
     342A      3.797870   343A      3.820050   344A      3.841107  
     345A      3.849479   346A      3.864848   347A      3.914950  
     348A      3.917487   349A      3.939165   350A      3.971792  
     351A      3.983785   352A      3.998234   353A      4.005225  
     354A      4.027658   355A      4.036141   356A      4.070374  
     357A      4.087631   358A      4.112773   359A      4.131202  
     360A      4.154580   361A      4.175697   362A      4.182769  
     363A      4.208892   364A      4.218339   365A      4.232322  
     366A      4.258995   367A      4.268682   368A      4.271646  
     369A      4.299264   370A      4.331413   371A      4.340925  
     372A      4.353899   373A      4.369110   374A      4.382803  
     375A      4.412700   376A      4.413380   377A      4.442770  
     378A      4.457721   379A      4.468935   380A      4.491290  
     381A      4.499541   382A      4.533300   383A      4.545124  
     384A      4.546598   385A      4.571998   386A      4.592350  
     387A      4.616822   388A      4.620816   389A      4.634376  
     390A      4.652143   391A      4.661199   392A      4.668116  
     393A      4.707808   394A      4.721608   395A      4.765931  
     396A      4.793192   397A      4.813921   398A      4.826340  
     399A      4.839235   400A      4.861574   401A      4.880951  
     402A      4.923980   403A      4.948582   404A      4.968519  
     405A      4.984129   406A      5.026399   407A      5.029642  
     408A      5.038891   409A      5.093103   410A      5.121118  
     411A      5.128271   412A      5.131414   413A      5.170933  
     414A      5.189993   415A      5.222596   416A      5.244824  
     417A      5.258608   418A      5.274472   419A      5.314689  
     420A      5.334146   421A      5.346458   422A      5.372412  
     423A      5.402938   424A      5.420459   425A      5.461962  
     426A      5.487117   427A      5.521814   428A      5.526392  
     429A      5.554149   430A      5.585739   431A      5.651884  
     432A      5.678558   433A      5.768274   434A      5.789547  
     435A      5.812456   436A      5.845238   437A      5.936580  
     438A      5.982779   439A      6.032319   440A      6.058451  
     441A      6.068141   442A      6.125119   443A      6.191579  
     444A      6.262488   445A      6.335809   446A      6.375985  
     447A      6.402588   448A      6.422447   449A      6.505077  
     450A      6.641709   451A      6.730749   452A      6.786892  
     453A      6.809183   454A      6.832378   455A      6.852545  
     456A      6.877520   457A      6.889343   458A      6.924346  
     459A      7.030698   460A      7.093139   461A      7.130410  
     462A      7.194074   463A      7.230940   464A      7.260504  
     465A      7.335303   466A      7.362002   467A      7.397646  
     468A      7.417770   469A      7.443255   470A      7.560855  
     471A      7.581903   472A      7.648656   473A      7.696605  
     474A      7.743698   475A      7.853764   476A      7.878225  
     477A      8.014969   478A      8.059053   479A      8.246148  
     480A      8.307162   481A      8.533994   482A     15.288747  
     483A     15.974509   484A     16.853682   485A     17.652752  
     486A     18.336024   487A     19.783746  

    Final Occupation by Irrep:
              A 
    DOCC [    32 ]

  @DF-RHF Final Energy:  -719.53662921970931

   => Energetics <=

    Nuclear Repulsion Energy =            380.0392581383059678
    One-Electron Energy =               -1744.8727791781698215
    Two-Electron Energy =                 645.2968918201545421
    Total Energy =                       -719.5366292197093117

Computation Completed

*** tstop() called on node142.bme.utexas.edu at Thu Nov  5 23:37:37 2020
Module time:
	user time   =     284.22 seconds =       4.74 minutes
	system time =      30.27 seconds =       0.50 minutes
	total time  =         64 seconds =       1.07 minutes
Total time:
	user time   =     284.22 seconds =       4.74 minutes
	system time =      30.27 seconds =       0.50 minutes
	total time  =         64 seconds =       1.07 minutes
   => Loading Basis Set <=

    Name: (AUG-CC-PVTZ AUX)
    Role: RIFIT
    Keyword: DF_BASIS_MP2
    atoms 1    entry S          line   666 file /home/xy3866/psi4conda/share/psi4/basis/aug-cc-pvtz-ri.gbs 
    atoms 2-3  entry O          line   264 file /home/xy3866/psi4conda/share/psi4/basis/aug-cc-pvtz-ri.gbs 
    atoms 4    entry N          line   206 file /home/xy3866/psi4conda/share/psi4/basis/aug-cc-pvtz-ri.gbs 
    atoms 5-7  entry C          line   148 file /home/xy3866/psi4conda/share/psi4/basis/aug-cc-pvtz-ri.gbs 
    atoms 8-14 entry H          line    30 file /home/xy3866/psi4conda/share/psi4/basis/aug-cc-pvtz-ri.gbs 


*** tstart() called on node142.bme.utexas.edu
*** at Thu Nov  5 23:37:37 2020


  //>>>>>>>>>>>>>>>>>>>>>>>>>>>>>>>>>>>//
  //               DFMP2               //
  //<<<<<<<<<<<<<<<<<<<<<<<<<<<<<<<<<<<//

	 --------------------------------------------------------
	                          DF-MP2                         
	      2nd-Order Density-Fitted Moller-Plesset Theory     
	              RMP2 Wavefunction,   8 Threads             
	                                                         
	        Rob Parrish, Justin Turney, Andy Simmonett,      
	           Ed Hohenstein, and C. David Sherrill          
	 --------------------------------------------------------

   => Auxiliary Basis Set <=

  Basis Set: (AUG-CC-PVTZ AUX)
    Blend: AUG-CC-PVTZ-RI
    Number of shells: 303
    Number of basis function: 1105
    Number of Cartesian functions: 1392
    Spherical Harmonics?: true
    Max angular momentum: 4

	 --------------------------------------------------------
	                 NBF =   487, NAUX =  1105
	 --------------------------------------------------------
	   CLASS    FOCC     OCC    AOCC    AVIR     VIR    FVIR
	   PAIRS       0      32      32     455     455       0
	 --------------------------------------------------------

  DFHelper Memory: AOs need 1.961 GiB; user supplied 22.352 GiB. Using in-core AOs.


         ------------------------------------------------------------
                                     CPHF                           
                                  Rob Parrish                       
         ------------------------------------------------------------

  ==> Geometry <==

    Molecular point group: c1
    Full point group: C1

    Geometry (in Angstrom), charge = 0, multiplicity = 1:

       Center              X                  Y                   Z               Mass       
    ------------   -----------------  -----------------  -----------------  -----------------
         S            2.238670462159    -0.239651941693    -0.289963108238    31.972071174400
         O           -2.274370537841    -0.660652941693    -0.559014108238    15.994914619570
         O           -0.612841537841    -1.491205941693     0.735507891762    15.994914619570
         N           -1.246745837841     1.815833758307     0.261322591762    14.003074004430
         C           -0.393624537841     0.738074058307    -0.256419108238    12.000000000000
         C            0.963566462159     0.839201058307     0.425393891762    12.000000000000
         C           -1.057683537841    -0.591370941693     0.044531891762    12.000000000000
         H           -0.250319537841     0.785538058307    -1.348928108238     1.007825032230
         H            1.341212462159     1.859248058307     0.304425891762     1.007825032230
         H            0.850859462159     0.647778058307     1.493832891762     1.007825032230
         H           -2.194697537841     1.702065058307    -0.164874108238     1.007825032230
         H           -0.907788537841     2.694311058307     0.020969891762     1.007825032230
         H            1.749632462159    -1.379185941693     0.215376891762     1.007825032230
         H           -2.655772537841    -1.524336941693    -0.296242108238     1.007825032230

  Nuclear repulsion =  380.039258138305968
  Reference energy  = -719.536629219709312

  ==> Basis Set <==

  Basis Set: AUG-CC-PVTZ
    Blend: AUG-CC-PVTZ
    Number of shells: 163
    Number of basis function: 487
    Number of Cartesian functions: 564
    Spherical Harmonics?: true
    Max angular momentum: 3

  ==> CGRSolver (by Rob Parrish) <==

   Number of roots    =         1
   Preconditioning    =    JACOBI
   Convergence cutoff =     1E-06
   Maximum iterations =       100

  ==> CPHFRHamiltonian (by Rob Parrish) <== 

  ==> MemDFJK: Density-Fitted J/K Matrices <==

    J tasked:                   Yes
    K tasked:                   Yes
    wK tasked:                   No
    OpenMP threads:               8
    Memory [MiB]:             22888
    Algorithm:                 Disk
    Schwarz Cutoff:           1E-12
    Mask sparsity (%):       2.0163
    Fitting Condition:        1E-10

   => Auxiliary Basis Set <=

  Basis Set: (AUG-CC-PVTZ AUX)
    Blend: AUG-CC-PVTZ-JKFIT
    Number of shells: 320
    Number of basis function: 1092
    Number of Cartesian functions: 1351
    Spherical Harmonics?: true
    Max angular momentum: 4

  ==> CPHF Iterations <==

  => Iterations <=

             Iter  Converged  Remaining    Residual
  CGR           1          0          1   1.132E-01
  CGR           2          0          1   3.052E-02
  CGR           3          0          1   1.210E-02
  CGR           4          0          1   3.596E-03
  CGR           5          0          1   1.311E-03
  CGR           6          0          1   3.695E-04
  CGR           7          0          1   1.264E-04
  CGR           8          0          1   4.907E-05
  CGR           9          0          1   1.719E-05
  CGR          10          0          1   6.363E-06
  CGR          11          0          1   1.919E-06
  CGR          12          1          0   6.766E-07

    CGRSolver converged.

	-----------------------------------------------------------
	 ==================> DF-MP2 Energies <==================== 
	-----------------------------------------------------------
	 Reference Energy          =    -719.5366292197093117 [Eh]
	 Singles Energy            =      -0.0000000000000000 [Eh]
	 Same-Spin Energy          =      -0.3746642455130846 [Eh]
	 Opposite-Spin Energy      =      -1.1590635874953028 [Eh]
	 Correlation Energy        =      -1.5337278330083874 [Eh]
	 Total Energy              =    -721.0703570527176680 [Eh]
	-----------------------------------------------------------
	 ================> DF-SCS-MP2 Energies <================== 
	-----------------------------------------------------------
	 SCS Same-Spin Scale       =       0.3333333333333333 [-]
	 SCS Opposite-Spin Scale   =       1.2000000000000000 [-]
	 SCS Same-Spin Energy      =      -0.1248880818376949 [Eh]
	 SCS Opposite-Spin Energy  =      -1.3908763049943633 [Eh]
	 SCS Correlation Energy    =      -1.5157643868320583 [Eh]
	 SCS Total Energy          =    -721.0523936065413864 [Eh]
	-----------------------------------------------------------



Properties will be evaluated at  -0.000000,   0.000000,  -0.000000 [a0]

Properties computed using the MP2 density matrix

  Nuclear Dipole Moment: [e a0]
     X:    -1.8888      Y:     4.4642      Z:     0.2030

  Electronic Dipole Moment: [e a0]
     X:     1.0642      Y:    -3.9809      Z:    -0.6622

  Dipole Moment: [e a0]
     X:    -0.8246      Y:     0.4833      Z:    -0.4592     Total:     1.0604

  Dipole Moment: [D]
     X:    -2.0960      Y:     1.2284      Z:    -1.1673     Total:     2.6953


*** tstop() called on node142.bme.utexas.edu at Thu Nov  5 23:39:53 2020
Module time:
	user time   =     768.68 seconds =      12.81 minutes
	system time =      32.75 seconds =       0.55 minutes
	total time  =        136 seconds =       2.27 minutes
Total time:
	user time   =    1053.17 seconds =      17.55 minutes
	system time =      63.02 seconds =       1.05 minutes
	total time  =        200 seconds =       3.33 minutes

    Psi4 stopped on: Thursday, 05 November 2020 11:39PM
    Psi4 wall time for execution: 0:03:20.16

*** Psi4 exiting successfully. Buy a developer a beer!
