12691406                                                                
Freq      RMP2-FC                                                     6-31G(d)            
Number of atoms                            I               15
Info1-9                                    I   N=           9
          27          25        1002           0           0         100
           6           2           1
Charge                                     I               -2
Multiplicity                               I                1
Number of electrons                        I               74
Number of alpha electrons                  I               37
Number of beta electrons                   I               37
Number of basis functions                  I              138
Number of independent functions            I              138
Number of point charges in /Mol/           I                0
Number of translation vectors              I                0
Atomic numbers                             I   N=          15
          15           8           8           8           8           6
           6           6           1           1           1           1
           1           1           1
Nuclear charges                            R   N=          15
  1.50000000E+01  8.00000000E+00  8.00000000E+00  8.00000000E+00  8.00000000E+00
  6.00000000E+00  6.00000000E+00  6.00000000E+00  1.00000000E+00  1.00000000E+00
  1.00000000E+00  1.00000000E+00  1.00000000E+00  1.00000000E+00  1.00000000E+00
Current cartesian coordinates              R   N=          45
  2.31954259E+00 -4.20623462E-02  8.20020193E-02 -7.38044835E-01 -7.33601585E-01
 -1.28647276E+00  4.04838006E+00 -9.84349935E-01 -2.03885224E+00  2.24855766E+00
 -1.61190681E+00  2.53333751E+00  2.18684023E+00  2.84972702E+00  4.71233177E-01
 -2.73419797E+00 -1.25166843E-01  3.37803871E-01 -3.60842200E+00  2.59461857E+00
 -1.22752047E-01 -4.85625072E+00 -2.03388333E+00 -1.20343265E-01 -2.11147612E+00
 -2.99072819E-01  2.31610458E+00 -5.11257635E+00  3.19069346E+00  1.19222535E+00
 -1.91220080E+00  3.75378004E+00  1.06379886E-01 -4.31988654E+00  2.77499122E+00
 -2.06582141E+00 -6.53291741E+00 -1.66749046E+00  1.05818261E+00 -4.15324118E+00
 -3.93829321E+00  2.74511231E-01 -5.42348132E+00 -1.95603293E+00 -2.11382939E+00
Force Field                                I                0
Int Atom Types                             I   N=          15
           0           0           0           0           0           0
           0           0           0           0           0           0
           0           0           0
MM charges                                 R   N=          15
  0.00000000E+00  0.00000000E+00  0.00000000E+00  0.00000000E+00  0.00000000E+00
  0.00000000E+00  0.00000000E+00  0.00000000E+00  0.00000000E+00  0.00000000E+00
  0.00000000E+00  0.00000000E+00  0.00000000E+00  0.00000000E+00  0.00000000E+00
Integer atomic weights                     I   N=          15
          31          16          16          16          16          12
          12          12           1           1           1           1
           1           1           1
Real atomic weights                        R   N=          15
  3.09737634E+01  1.59949146E+01  1.59949146E+01  1.59949146E+01  1.59949146E+01
  1.20000000E+01  1.20000000E+01  1.20000000E+01  1.00782504E+00  1.00782504E+00
  1.00782504E+00  1.00782504E+00  1.00782504E+00  1.00782504E+00  1.00782504E+00
Atom fragment info                         I   N=          15
           0           0           0           0           0           0
           0           0           0           0           0           0
           0           0           0
Atom residue num                           I   N=          15
           0           0           0           0           0           0
           0           0           0           0           0           0
           0           0           0
Nuclear spins                              I   N=          15
           1           0           0           0           0           0
           0           0           1           1           1           1
           1           1           1
Nuclear ZEff                               R   N=          15
 -1.29400000E+01 -5.60000000E+00 -5.60000000E+00 -5.60000000E+00 -5.60000000E+00
 -3.60000000E+00 -3.60000000E+00 -3.60000000E+00 -1.00000000E+00 -1.00000000E+00
 -1.00000000E+00 -1.00000000E+00 -1.00000000E+00 -1.00000000E+00 -1.00000000E+00
Nuclear QMom                               R   N=          15
  0.00000000E+00  0.00000000E+00  0.00000000E+00  0.00000000E+00  0.00000000E+00
  0.00000000E+00  0.00000000E+00  0.00000000E+00  0.00000000E+00  0.00000000E+00
  0.00000000E+00  0.00000000E+00  0.00000000E+00  0.00000000E+00  0.00000000E+00
Nuclear GFac                               R   N=          15
  1.13160000E+00  0.00000000E+00  0.00000000E+00  0.00000000E+00  0.00000000E+00
  0.00000000E+00  0.00000000E+00  0.00000000E+00  2.79284600E+00  2.79284600E+00
  2.79284600E+00  2.79284600E+00  2.79284600E+00  2.79284600E+00  2.79284600E+00
MicOpt                                     I   N=          15
          -1          -1          -1          -1          -1          -1
          -1          -1          -1          -1          -1          -1
          -1          -1          -1
Number of contracted shells                I               47
Number of primitive shells                 I              122
Pure/Cartesian d shells                    I                1
Pure/Cartesian f shells                    I                0
Highest angular momentum                   I                2
Largest degree of contraction              I                6
Shell types                                I   N=          47
           0          -1          -1          -1           2           0
          -1          -1           2           0          -1          -1
           2           0          -1          -1           2           0
          -1          -1           2           0          -1          -1
           2           0          -1          -1           2           0
          -1          -1           2           0           0           0
           0           0           0           0           0           0
           0           0           0           0           0
Number of primitives per shell             I   N=          47
           6           6           3           1           1           6
           3           1           1           6           3           1
           1           6           3           1           1           6
           3           1           1           6           3           1
           1           6           3           1           1           6
           3           1           1           3           1           3
           1           3           1           3           1           3
           1           3           1           3           1
Shell to atom map                          I   N=          47
           1           1           1           1           1           2
           2           2           2           3           3           3
           3           4           4           4           4           5
           5           5           5           6           6           6
           6           7           7           7           7           8
           8           8           8           9           9          10
          10          11          11          12          12          13
          13          14          14          15          15
Primitive exponents                        R   N=         122
  1.94133000E+04  2.90942000E+03  6.61364000E+02  1.85759000E+02  5.91943000E+01
  2.00310000E+01  3.39478000E+02  8.10101000E+01  2.58780000E+01  9.45221000E+00
  3.66566000E+00  1.46746000E+00  2.15623000E+00  7.48997000E-01  2.83145000E-01
  9.98317000E-02  5.50000000E-01  5.48467166E+03  8.25234946E+02  1.88046958E+02
  5.29645000E+01  1.68975704E+01  5.79963534E+00  1.55396162E+01  3.59993359E+00
  1.01376175E+00  2.70005823E-01  8.00000000E-01  5.48467166E+03  8.25234946E+02
  1.88046958E+02  5.29645000E+01  1.68975704E+01  5.79963534E+00  1.55396162E+01
  3.59993359E+00  1.01376175E+00  2.70005823E-01  8.00000000E-01  5.48467166E+03
  8.25234946E+02  1.88046958E+02  5.29645000E+01  1.68975704E+01  5.79963534E+00
  1.55396162E+01  3.59993359E+00  1.01376175E+00  2.70005823E-01  8.00000000E-01
  5.48467166E+03  8.25234946E+02  1.88046958E+02  5.29645000E+01  1.68975704E+01
  5.79963534E+00  1.55396162E+01  3.59993359E+00  1.01376175E+00  2.70005823E-01
  8.00000000E-01  3.04752488E+03  4.57369518E+02  1.03948685E+02  2.92101553E+01
  9.28666296E+00  3.16392696E+00  7.86827235E+00  1.88128854E+00  5.44249258E-01
  1.68714478E-01  8.00000000E-01  3.04752488E+03  4.57369518E+02  1.03948685E+02
  2.92101553E+01  9.28666296E+00  3.16392696E+00  7.86827235E+00  1.88128854E+00
  5.44249258E-01  1.68714478E-01  8.00000000E-01  3.04752488E+03  4.57369518E+02
  1.03948685E+02  2.92101553E+01  9.28666296E+00  3.16392696E+00  7.86827235E+00
  1.88128854E+00  5.44249258E-01  1.68714478E-01  8.00000000E-01  1.87311370E+01
  2.82539436E+00  6.40121692E-01  1.61277759E-01  1.87311370E+01  2.82539436E+00
  6.40121692E-01  1.61277759E-01  1.87311370E+01  2.82539436E+00  6.40121692E-01
  1.61277759E-01  1.87311370E+01  2.82539436E+00  6.40121692E-01  1.61277759E-01
  1.87311370E+01  2.82539436E+00  6.40121692E-01  1.61277759E-01  1.87311370E+01
  2.82539436E+00  6.40121692E-01  1.61277759E-01  1.87311370E+01  2.82539436E+00
  6.40121692E-01  1.61277759E-01
Contraction coefficients                   R   N=         122
  1.85159892E-03  1.42061917E-02  6.99994593E-02  2.40078860E-01  4.84761718E-01
  3.35199805E-01 -2.78217010E-03 -3.60499014E-02 -1.16631004E-01  9.68328036E-02
  6.14418023E-01  4.03798015E-01 -2.52924114E-01  3.28518447E-02  1.08125476E+00
  1.00000000E+00  1.00000000E+00  1.83107443E-03  1.39501722E-02  6.84450781E-02
  2.32714336E-01  4.70192898E-01  3.58520853E-01 -1.10777550E-01 -1.48026263E-01
  1.13076702E+00  1.00000000E+00  1.00000000E+00  1.83107443E-03  1.39501722E-02
  6.84450781E-02  2.32714336E-01  4.70192898E-01  3.58520853E-01 -1.10777550E-01
 -1.48026263E-01  1.13076702E+00  1.00000000E+00  1.00000000E+00  1.83107443E-03
  1.39501722E-02  6.84450781E-02  2.32714336E-01  4.70192898E-01  3.58520853E-01
 -1.10777550E-01 -1.48026263E-01  1.13076702E+00  1.00000000E+00  1.00000000E+00
  1.83107443E-03  1.39501722E-02  6.84450781E-02  2.32714336E-01  4.70192898E-01
  3.58520853E-01 -1.10777550E-01 -1.48026263E-01  1.13076702E+00  1.00000000E+00
  1.00000000E+00  1.83473713E-03  1.40373228E-02  6.88426223E-02  2.32184443E-01
  4.67941348E-01  3.62311985E-01 -1.19332420E-01 -1.60854152E-01  1.14345644E+00
  1.00000000E+00  1.00000000E+00  1.83473713E-03  1.40373228E-02  6.88426223E-02
  2.32184443E-01  4.67941348E-01  3.62311985E-01 -1.19332420E-01 -1.60854152E-01
  1.14345644E+00  1.00000000E+00  1.00000000E+00  1.83473713E-03  1.40373228E-02
  6.88426223E-02  2.32184443E-01  4.67941348E-01  3.62311985E-01 -1.19332420E-01
 -1.60854152E-01  1.14345644E+00  1.00000000E+00  1.00000000E+00  3.34946043E-02
  2.34726953E-01  8.13757326E-01  1.00000000E+00  3.34946043E-02  2.34726953E-01
  8.13757326E-01  1.00000000E+00  3.34946043E-02  2.34726953E-01  8.13757326E-01
  1.00000000E+00  3.34946043E-02  2.34726953E-01  8.13757326E-01  1.00000000E+00
  3.34946043E-02  2.34726953E-01  8.13757326E-01  1.00000000E+00  3.34946043E-02
  2.34726953E-01  8.13757326E-01  1.00000000E+00  3.34946043E-02  2.34726953E-01
  8.13757326E-01  1.00000000E+00
P(S=P) Contraction coefficients            R   N=         122
  0.00000000E+00  0.00000000E+00  0.00000000E+00  0.00000000E+00  0.00000000E+00
  0.00000000E+00  4.56461619E-03  3.36935719E-02  1.39754883E-01  3.39361717E-01
  4.50920624E-01  2.38585801E-01 -1.77653127E-02  2.74058196E-01  7.85421563E-01
  1.00000000E+00  0.00000000E+00  0.00000000E+00  0.00000000E+00  0.00000000E+00
  0.00000000E+00  0.00000000E+00  0.00000000E+00  7.08742682E-02  3.39752839E-01
  7.27158577E-01  1.00000000E+00  0.00000000E+00  0.00000000E+00  0.00000000E+00
  0.00000000E+00  0.00000000E+00  0.00000000E+00  0.00000000E+00  7.08742682E-02
  3.39752839E-01  7.27158577E-01  1.00000000E+00  0.00000000E+00  0.00000000E+00
  0.00000000E+00  0.00000000E+00  0.00000000E+00  0.00000000E+00  0.00000000E+00
  7.08742682E-02  3.39752839E-01  7.27158577E-01  1.00000000E+00  0.00000000E+00
  0.00000000E+00  0.00000000E+00  0.00000000E+00  0.00000000E+00  0.00000000E+00
  0.00000000E+00  7.08742682E-02  3.39752839E-01  7.27158577E-01  1.00000000E+00
  0.00000000E+00  0.00000000E+00  0.00000000E+00  0.00000000E+00  0.00000000E+00
  0.00000000E+00  0.00000000E+00  6.89990666E-02  3.16423961E-01  7.44308291E-01
  1.00000000E+00  0.00000000E+00  0.00000000E+00  0.00000000E+00  0.00000000E+00
  0.00000000E+00  0.00000000E+00  0.00000000E+00  6.89990666E-02  3.16423961E-01
  7.44308291E-01  1.00000000E+00  0.00000000E+00  0.00000000E+00  0.00000000E+00
  0.00000000E+00  0.00000000E+00  0.00000000E+00  0.00000000E+00  6.89990666E-02
  3.16423961E-01  7.44308291E-01  1.00000000E+00  0.00000000E+00  0.00000000E+00
  0.00000000E+00  0.00000000E+00  0.00000000E+00  0.00000000E+00  0.00000000E+00
  0.00000000E+00  0.00000000E+00  0.00000000E+00  0.00000000E+00  0.00000000E+00
  0.00000000E+00  0.00000000E+00  0.00000000E+00  0.00000000E+00  0.00000000E+00
  0.00000000E+00  0.00000000E+00  0.00000000E+00  0.00000000E+00  0.00000000E+00
  0.00000000E+00  0.00000000E+00  0.00000000E+00  0.00000000E+00  0.00000000E+00
  0.00000000E+00  0.00000000E+00
Coordinates of each shell                  R   N=         141
  2.31954259E+00 -4.20623462E-02  8.20020193E-02  2.31954259E+00 -4.20623462E-02
  8.20020193E-02  2.31954259E+00 -4.20623462E-02  8.20020193E-02  2.31954259E+00
 -4.20623462E-02  8.20020193E-02  2.31954259E+00 -4.20623462E-02  8.20020193E-02
 -7.38044835E-01 -7.33601585E-01 -1.28647276E+00 -7.38044835E-01 -7.33601585E-01
 -1.28647276E+00 -7.38044835E-01 -7.33601585E-01 -1.28647276E+00 -7.38044835E-01
 -7.33601585E-01 -1.28647276E+00  4.04838006E+00 -9.84349935E-01 -2.03885224E+00
  4.04838006E+00 -9.84349935E-01 -2.03885224E+00  4.04838006E+00 -9.84349935E-01
 -2.03885224E+00  4.04838006E+00 -9.84349935E-01 -2.03885224E+00  2.24855766E+00
 -1.61190681E+00  2.53333751E+00  2.24855766E+00 -1.61190681E+00  2.53333751E+00
  2.24855766E+00 -1.61190681E+00  2.53333751E+00  2.24855766E+00 -1.61190681E+00
  2.53333751E+00  2.18684023E+00  2.84972702E+00  4.71233177E-01  2.18684023E+00
  2.84972702E+00  4.71233177E-01  2.18684023E+00  2.84972702E+00  4.71233177E-01
  2.18684023E+00  2.84972702E+00  4.71233177E-01 -2.73419797E+00 -1.25166843E-01
  3.37803871E-01 -2.73419797E+00 -1.25166843E-01  3.37803871E-01 -2.73419797E+00
 -1.25166843E-01  3.37803871E-01 -2.73419797E+00 -1.25166843E-01  3.37803871E-01
 -3.60842200E+00  2.59461857E+00 -1.22752047E-01 -3.60842200E+00  2.59461857E+00
 -1.22752047E-01 -3.60842200E+00  2.59461857E+00 -1.22752047E-01 -3.60842200E+00
  2.59461857E+00 -1.22752047E-01 -4.85625072E+00 -2.03388333E+00 -1.20343265E-01
 -4.85625072E+00 -2.03388333E+00 -1.20343265E-01 -4.85625072E+00 -2.03388333E+00
 -1.20343265E-01 -4.85625072E+00 -2.03388333E+00 -1.20343265E-01 -2.11147612E+00
 -2.99072819E-01  2.31610458E+00 -2.11147612E+00 -2.99072819E-01  2.31610458E+00
 -5.11257635E+00  3.19069346E+00  1.19222535E+00 -5.11257635E+00  3.19069346E+00
  1.19222535E+00 -1.91220080E+00  3.75378004E+00  1.06379886E-01 -1.91220080E+00
  3.75378004E+00  1.06379886E-01 -4.31988654E+00  2.77499122E+00 -2.06582141E+00
 -4.31988654E+00  2.77499122E+00 -2.06582141E+00 -6.53291741E+00 -1.66749046E+00
  1.05818261E+00 -6.53291741E+00 -1.66749046E+00  1.05818261E+00 -4.15324118E+00
 -3.93829321E+00  2.74511231E-01 -4.15324118E+00 -3.93829321E+00  2.74511231E-01
 -5.42348132E+00 -1.95603293E+00 -2.11382939E+00 -5.42348132E+00 -1.95603293E+00
 -2.11382939E+00
Constraint Structure                       R   N=          45
  2.31954259E+00 -4.20623462E-02  8.20020193E-02 -7.38044835E-01 -7.33601585E-01
 -1.28647276E+00  4.04838006E+00 -9.84349935E-01 -2.03885224E+00  2.24855766E+00
 -1.61190681E+00  2.53333751E+00  2.18684023E+00  2.84972702E+00  4.71233177E-01
 -2.73419797E+00 -1.25166843E-01  3.37803871E-01 -3.60842200E+00  2.59461857E+00
 -1.22752047E-01 -4.85625072E+00 -2.03388333E+00 -1.20343265E-01 -2.11147612E+00
 -2.99072819E-01  2.31610458E+00 -5.11257635E+00  3.19069346E+00  1.19222535E+00
 -1.91220080E+00  3.75378004E+00  1.06379886E-01 -4.31988654E+00  2.77499122E+00
 -2.06582141E+00 -6.53291741E+00 -1.66749046E+00  1.05818261E+00 -4.15324118E+00
 -3.93829321E+00  2.74511231E-01 -5.42348132E+00 -1.95603293E+00 -2.11382939E+00
Num ILSW                                   I              100
ILSW                                       I   N=         100
           0           1           0           0           2           0
           0           0           0           0           0          -1
           0           0           0           0           0           0
           0           0           0           0           1           0
           1           0           0           0           0           0
           0           0      100000           0          -1           0
           0           0           0           0           0           0
           0           0           0           1           1           0
           0           0           1           0           0           0
           0           0           4          40           0           0
           0           0           0           0           0           0
           0           0           0           0           0           0
           0           0           0           0           0           0
           0           0           0           0           0           0
           0           0           0           0           0           0
           0           0           0           0           0           0
           0           0           0           0
Num RLSW                                   I               40
RLSW                                       R   N=          40
  1.00000000E+00  1.00000000E+00  1.00000000E+00  1.00000000E+00  1.00000000E+00
  0.00000000E+00  0.00000000E+00  1.00000000E+00  0.00000000E+00  0.00000000E+00
  0.00000000E+00  0.00000000E+00  1.00000000E+00  0.00000000E+00  0.00000000E+00
  0.00000000E+00  0.00000000E+00  1.00000000E+00  0.00000000E+00  0.00000000E+00
  0.00000000E+00  0.00000000E+00  1.00000000E+00  0.00000000E+00  0.00000000E+00
  0.00000000E+00  0.00000000E+00  1.00000000E+00  0.00000000E+00  0.00000000E+00
  0.00000000E+00  0.00000000E+00  0.00000000E+00  0.00000000E+00  0.00000000E+00
  0.00000000E+00  0.00000000E+00  0.00000000E+00  1.00000000E+00  1.00000000E+00
MxBond                                     I                4
NBond                                      I   N=          15
           4           2           1           1           1           4
           4           4           1           1           1           1
           1           1           1
IBond                                      I   N=          60
           2           3           4           5           1           6
           0           0           1           0           0           0
           1           0           0           0           1           0
           0           0           2           7           8           9
           6          10          11          12           6          13
          14          15           6           0           0           0
           7           0           0           0           7           0
           0           0           7           0           0           0
           8           0           0           0           8           0
           0           0           8           0           0           0
RBond                                      R   N=          60
  1.00000000E+00  2.00000000E+00  2.00000000E+00  2.00000000E+00  1.00000000E+00
  1.00000000E+00  0.00000000E+00  0.00000000E+00  2.00000000E+00  0.00000000E+00
  0.00000000E+00  0.00000000E+00  2.00000000E+00  0.00000000E+00  0.00000000E+00
  0.00000000E+00  2.00000000E+00  0.00000000E+00  0.00000000E+00  0.00000000E+00
  1.00000000E+00  1.00000000E+00  1.00000000E+00  1.00000000E+00  1.00000000E+00
  1.00000000E+00  1.00000000E+00  1.00000000E+00  1.00000000E+00  1.00000000E+00
  1.00000000E+00  1.00000000E+00  1.00000000E+00  0.00000000E+00  0.00000000E+00
  0.00000000E+00  1.00000000E+00  0.00000000E+00  0.00000000E+00  0.00000000E+00
  1.00000000E+00  0.00000000E+00  0.00000000E+00  0.00000000E+00  1.00000000E+00
  0.00000000E+00  0.00000000E+00  0.00000000E+00  1.00000000E+00  0.00000000E+00
  0.00000000E+00  0.00000000E+00  1.00000000E+00  0.00000000E+00  0.00000000E+00
  0.00000000E+00  1.00000000E+00  0.00000000E+00  0.00000000E+00  0.00000000E+00
Virial Ratio                               R      2.001948508081504E+00
SCF Energy                                 R     -7.578153309046031E+02
MP2 Energy                                 R     -7.590584296574848E+02
Total Energy                               R     -7.590584296574848E+02
Post-SCF wavefunction norm                 R      1.661619173641538E+00
RMS Force                                  R      7.332778052136486E-07
RMS Density                                R      1.135797028644577E-09
External E-field                           R   N=          35
  0.00000000E+00  0.00000000E+00  0.00000000E+00  0.00000000E+00  0.00000000E+00
  0.00000000E+00  0.00000000E+00  0.00000000E+00  0.00000000E+00  0.00000000E+00
  0.00000000E+00  0.00000000E+00  0.00000000E+00  0.00000000E+00  0.00000000E+00
  0.00000000E+00  0.00000000E+00  0.00000000E+00  0.00000000E+00  0.00000000E+00
  0.00000000E+00  0.00000000E+00  0.00000000E+00  0.00000000E+00  0.00000000E+00
  0.00000000E+00  0.00000000E+00  0.00000000E+00  0.00000000E+00  0.00000000E+00
  0.00000000E+00  0.00000000E+00  0.00000000E+00  0.00000000E+00  0.00000000E+00
IOpCl                                      I                0
IROHF                                      I                0
Alpha Orbital Energies                     R   N=         138
 -7.96563475E+01 -2.01875476E+01 -2.00942935E+01 -2.00922365E+01 -2.00907452E+01
 -1.09677440E+01 -1.09541641E+01 -1.09260765E+01 -7.17464398E+00 -5.07429459E+00
 -5.07211172E+00 -5.07195157E+00 -9.92471022E-01 -8.99278322E-01 -8.28414516E-01
 -8.27284821E-01 -7.38682937E-01 -6.56996350E-01 -4.88211631E-01 -3.76069476E-01
 -3.24460902E-01 -3.05261728E-01 -2.86294222E-01 -2.68192793E-01 -2.28961693E-01
 -2.23433652E-01 -2.10362346E-01 -1.63749985E-01 -1.55055078E-01 -1.40514994E-01
 -9.11354139E-02 -6.25268542E-02 -5.97148605E-02 -5.38776621E-02 -2.45570289E-02
 -1.83813078E-02  8.49164206E-03  4.93321960E-01  5.45278813E-01  5.53746332E-01
  5.67458247E-01  5.97705800E-01  6.18309253E-01  6.45076774E-01  6.64844405E-01
  6.72496302E-01  7.09881031E-01  7.15694072E-01  7.58843715E-01  7.63344999E-01
  7.97978868E-01  8.97926756E-01  9.28918735E-01  9.90335411E-01  1.00667697E+00
  1.02505413E+00  1.04114647E+00  1.08105363E+00  1.12407878E+00  1.13359879E+00
  1.20621987E+00  1.23033519E+00  1.26297871E+00  1.27956974E+00  1.33876030E+00
  1.38495967E+00  1.41340984E+00  1.42157827E+00  1.43148477E+00  1.44261359E+00
  1.45538378E+00  1.46183323E+00  1.46399279E+00  1.48160666E+00  1.52085459E+00
  1.54148665E+00  1.60721041E+00  1.61536436E+00  1.70806516E+00  1.72460499E+00
  1.73029867E+00  1.74520385E+00  1.75040908E+00  1.76700889E+00  1.79282107E+00
  1.87654708E+00  1.89276479E+00  1.93441010E+00  1.95473747E+00  1.97312329E+00
  1.98391845E+00  2.06621185E+00  2.08396289E+00  2.08492842E+00  2.18085560E+00
  2.22078544E+00  2.32694928E+00  2.36447727E+00  2.39443983E+00  2.44244554E+00
  2.50637178E+00  2.51122607E+00  2.54020824E+00  2.54932686E+00  2.55021886E+00
  2.56007412E+00  2.56976559E+00  2.58081629E+00  2.60127831E+00  2.64115677E+00
  2.69413974E+00  2.75236186E+00  2.80071795E+00  2.80615579E+00  2.81926502E+00
  2.83603867E+00  2.85281915E+00  2.88671671E+00  2.91803187E+00  3.00212204E+00
  3.04594235E+00  3.05581889E+00  3.15796385E+00  3.21345071E+00  3.26117978E+00
  3.39670981E+00  3.45265539E+00  3.56821963E+00  3.58504811E+00  3.63092592E+00
  4.30798587E+00  4.55735220E+00  4.58709109E+00  4.73126911E+00  4.81206359E+00
  4.91384662E+00  5.00015436E+00  5.26332134E+00
Alpha MO coefficients                      R   N=       19044
  9.96430919E-01  1.34993557E-02 -4.64374848E-05 -6.24268241E-06 -1.44850045E-05
 -2.18608053E-02  7.22756446E-05  1.58116295E-05  1.71492397E-05  1.92849602E-03
 -2.82673291E-05  6.92907054E-05  1.04645488E-04  7.44849104E-03  7.44268387E-03
  7.43687579E-03  1.55353558E-05  2.96848835E-05  2.61599561E-06 -2.55457851E-05
 -7.89437400E-05 -2.71198636E-07 -1.27847001E-05 -2.19754473E-05  6.10800442E-04
  3.27688171E-04  8.54167338E-05  2.28167201E-04 -1.02073314E-04 -9.08515374E-05
 -7.38818210E-05 -1.73104226E-05 -4.79522852E-05 -4.40437035E-07 -1.45489022E-05
 -1.19291227E-04  8.31487840E-05 -4.60364391E-05 -1.07331531E-04  8.55821741E-04
 -3.05766151E-04  1.57740185E-04  3.71536355E-04 -8.88635958E-05 -5.66166489E-05
 -1.20596152E-04  3.20662050E-05  7.11008497E-05 -4.23638720E-05 -6.20550414E-06
 -8.37588571E-05 -2.92610379E-06 -6.78049393E-05  1.16223435E-04  6.79249031E-04
  1.07500623E-06  2.31757059E-04 -4.16652067E-04 -1.26260551E-05 -6.53427272E-05
 -1.16413994E-04 -6.85890341E-06  7.55801445E-06  7.82284404E-05 -4.31479387E-06
 -7.23402263E-05 -2.51483063E-06  1.25498976E-04  2.41238140E-05  6.31187522E-04
  3.14881753E-06 -4.42943880E-04 -9.15895750E-05 -6.61731395E-06 -1.60397090E-04
 -1.43025425E-05  1.13075889E-05  2.49256690E-06 -1.77004578E-05 -2.63897403E-05
 -1.11138098E-04 -5.08274277E-05 -1.36994846E-05  1.12285955E-05  4.98943096E-04
 -3.17173219E-05  3.13400432E-04 -4.13756380E-05 -5.67783767E-05 -4.36705963E-05
 -2.58047316E-05 -2.45400681E-06  1.34663599E-05  1.73578705E-06  1.69123592E-05
  7.33878651E-05  1.10696118E-05 -5.01409249E-07 -8.11198956E-06 -5.00127452E-04
 -1.58696726E-04  2.53834480E-04  1.84532545E-05  9.40892562E-06  1.81224112E-05
  3.79632498E-05  1.89052732E-05 -7.94513815E-06  2.85791652E-06 -5.80196980E-06
 -2.43068620E-05  4.15552581E-08 -7.74996554E-06  6.56363886E-07  1.08887640E-04
  5.19110223E-05 -1.65578162E-05  1.84623713E-05  2.61433467E-06 -1.81424673E-05
 -8.80674714E-06  4.26317635E-06  5.64049776E-06  1.03848437E-06 -1.82939811E-05
 -1.38770026E-04  5.82224570E-06 -3.41269265E-05  3.66979321E-05 -7.01251239E-05
  2.48612725E-05  2.89602808E-05 -5.35022984E-06  4.69018967E-06  8.09479654E-06
 -5.36947818E-05 -1.21331289E-05  1.73346874E-05  4.03741163E-06 -2.39476673E-06
  6.32922960E-05  1.34189314E-05  2.51282131E-05 -6.39723206E-05 -2.11147634E-04
 -5.02045130E-05 -8.87960915E-05 -7.50533180E-04  2.60757714E-04  1.40374105E-04
  2.91165672E-04  2.65423983E-04  2.63501659E-05  4.56988766E-05  4.57695654E-05
  8.65912464E-05  1.49509034E-05  9.94664603E-01  2.10851026E-02 -3.47312551E-04
  4.02955574E-04  9.50341105E-04  3.90814021E-03  4.58192926E-04 -2.51325806E-04
 -5.94866221E-04 -4.17553344E-03 -3.90913321E-03 -4.07333373E-03  4.14298296E-05
  1.14268798E-04 -8.71797610E-05 -6.76555216E-05 -4.34732821E-05 -1.46982548E-05
  1.06350647E-06  2.02969075E-06  3.28276199E-04  6.57449596E-06  1.56805565E-05
  3.56040905E-05 -7.59163599E-05  5.39123522E-07 -1.14794096E-05 -3.48608482E-06
 -3.57152628E-06 -8.20379887E-06 -7.85486828E-05 -3.17611890E-05  6.66850211E-06
  1.16180844E-05  1.40377740E-05  1.97894695E-04  1.47117931E-06 -1.43943076E-05
 -8.23468987E-05 -4.14256964E-05 -1.32620799E-05 -1.69532438E-05  1.97561939E-06
 -2.85647025E-05 -3.90846312E-07 -8.02180503E-05 -3.22265028E-05  7.22191581E-06
  4.86079981E-06  1.85946691E-05  1.94068732E-04  3.32405343E-06 -6.19071978E-05
 -6.83105263E-05 -3.99941576E-05 -1.29407760E-05 -1.40904878E-05 -2.17869839E-05
 -1.52962912E-05 -1.01859579E-06 -3.50835556E-05  2.04605566E-04  2.79100741E-04
 -9.20139134E-05 -2.49558569E-04  8.00439358E-04  1.67708543E-04  1.38766395E-06
 -6.84333481E-05 -2.60456647E-05 -6.06548423E-05 -4.72316721E-05 -1.03576269E-05
 -5.18312372E-05  1.77567727E-05  1.57774995E-06  5.15155185E-05 -2.22555383E-05
  3.54192372E-05  6.52273942E-06 -1.88452003E-04 -1.05810731E-04  8.35470094E-05
  1.25459898E-06 -3.33894383E-05 -3.82740809E-05 -1.61346789E-05  3.48449284E-05
 -1.02892586E-06 -1.66729664E-05  3.49843766E-06  6.25805796E-05 -1.78893991E-05
 -1.86181914E-05 -4.24992044E-06 -1.39660867E-04 -2.09392160E-04 -1.46333010E-05
  6.82923285E-05 -6.00550400E-05 -1.10746726E-05 -1.23105396E-05 -2.24248241E-05
  5.27289183E-06  1.84257387E-05 -7.60967331E-05 -7.35230651E-05  5.92839785E-06
 -1.41395422E-05  6.02360574E-06  5.92225653E-05  2.27106825E-05 -4.22973570E-05
 -5.49773105E-06 -8.00042319E-05  2.54879659E-05  1.27217643E-05  3.61184041E-05
 -4.14177649E-05  1.71009915E-05 -6.54583621E-05  2.36670604E-06 -3.90852741E-05
 -5.53332577E-06  5.89425145E-04 -1.96105896E-05  3.91182080E-04  5.42507335E-05
 -3.57873894E-04  4.61284618E-05 -3.18424970E-04 -5.08185710E-05 -1.52113130E-04
  1.98398352E-05 -1.68844052E-04 -8.87253269E-07  7.27003308E-06  3.13410325E-05
  7.46003318E-05  6.71058069E-06 -7.63368148E-06 -8.83213609E-06 -6.10528854E-07
  3.51722100E-06  7.97286586E-06  5.22903365E-06 -8.73744278E-06  3.01268285E-06
 -1.27267894E-05  5.08800053E-06 -1.36813220E-05 -2.19053615E-06 -1.23761203E-05
 -2.34264477E-03 -3.43124179E-05 -3.11264833E-06 -1.41738497E-05  2.65297328E-06
 -4.69153808E-05 -5.41403292E-10  2.04388426E-05 -5.91732201E-06  3.00511376E-05