V004_2233-Tetramethylbutane Gaussian SP Calculation on node58.bme.utexas
Freq      RMP2-FC                                                     6-31G(d)            
Number of atoms                            I               26
Info1-9                                    I   N=           9
          37          36        1002           0           0         100
           6           2           1
Charge                                     I                0
Multiplicity                               I                1
Number of electrons                        I               66
Number of alpha electrons                  I               33
Number of beta electrons                   I               33
Number of basis functions                  I              156
Number of independent functions            I              156
Number of point charges in /Mol/           I                0
Number of translation vectors              I                0
Atomic numbers                             I   N=          26
           6           6           6           6           6           6
           6           6           1           1           1           1
           1           1           1           1           1           1
           1           1           1           1           1           1
           1           1
Nuclear charges                            R   N=          26
  6.00000000E+00  6.00000000E+00  6.00000000E+00  6.00000000E+00  6.00000000E+00
  6.00000000E+00  6.00000000E+00  6.00000000E+00  1.00000000E+00  1.00000000E+00
  1.00000000E+00  1.00000000E+00  1.00000000E+00  1.00000000E+00  1.00000000E+00
  1.00000000E+00  1.00000000E+00  1.00000000E+00  1.00000000E+00  1.00000000E+00
  1.00000000E+00  1.00000000E+00  1.00000000E+00  1.00000000E+00  1.00000000E+00
  1.00000000E+00
Current cartesian coordinates              R   N=          78
 -1.48360755E+00 -9.13188165E-08  5.21805879E-07  1.48360746E+00 -1.80772628E-06
 -1.55258481E-06 -2.53974669E+00 -9.34346265E-01 -2.53659575E+00 -2.53974271E+00
 -1.72958420E+00  2.07746974E+00 -2.53973823E+00  2.66393468E+00  4.59132488E-01
  2.53974029E+00  2.16254533E+00 -1.62195585E+00  2.53974060E+00 -2.48592855E+00
 -1.06184261E+00  2.53974682E+00  3.23381035E-01  2.68379290E+00 -2.15734182E+00
 -2.94291347E+00 -2.83462454E+00 -4.59464204E+00 -6.82734308E-01 -2.56265304E+00
 -1.76533620E+00  1.18063829E-01 -4.13934341E+00 -2.15737918E+00 -9.83373548E-01
  3.96595145E+00 -1.76529301E+00 -3.64379530E+00  1.96745817E+00 -4.59463178E+00
 -1.87799768E+00  1.87256564E+00 -2.15735855E+00  3.92630895E+00 -1.13133724E+00
 -4.59462910E+00  2.56069395E+00  6.90097612E-01 -1.76529822E+00  3.52575698E+00
  2.17190304E+00  4.59463236E+00  1.96545210E+00 -1.78055423E+00  2.15735262E+00
  4.01073613E+00 -7.80904630E-01  1.76530818E+00  2.14977968E+00 -3.53928988E+00
  1.76528964E+00 -4.14000675E+00 -9.21363160E-02  2.15737857E+00 -2.68164382E+00
 -3.08295399E+00  4.59462983E+00 -2.52474332E+00 -8.11831065E-01  2.15734850E+00
 -1.32907855E+00  3.86385430E+00  4.59464076E+00  5.59260472E-01  2.59239938E+00
  1.76532958E+00  1.99023388E+00  3.63139940E+00
Force Field                                I                0
Int Atom Types                             I   N=          26
           0           0           0           0           0           0
           0           0           0           0           0           0
           0           0           0           0           0           0
           0           0           0           0           0           0
           0           0
MM charges                                 R   N=          26
  0.00000000E+00  0.00000000E+00  0.00000000E+00  0.00000000E+00  0.00000000E+00
  0.00000000E+00  0.00000000E+00  0.00000000E+00  0.00000000E+00  0.00000000E+00
  0.00000000E+00  0.00000000E+00  0.00000000E+00  0.00000000E+00  0.00000000E+00
  0.00000000E+00  0.00000000E+00  0.00000000E+00  0.00000000E+00  0.00000000E+00
  0.00000000E+00  0.00000000E+00  0.00000000E+00  0.00000000E+00  0.00000000E+00
  0.00000000E+00
Integer atomic weights                     I   N=          26
          12          12          12          12          12          12
          12          12           1           1           1           1
           1           1           1           1           1           1
           1           1           1           1           1           1
           1           1
Real atomic weights                        R   N=          26
  1.20000000E+01  1.20000000E+01  1.20000000E+01  1.20000000E+01  1.20000000E+01
  1.20000000E+01  1.20000000E+01  1.20000000E+01  1.00782504E+00  1.00782504E+00
  1.00782504E+00  1.00782504E+00  1.00782504E+00  1.00782504E+00  1.00782504E+00
  1.00782504E+00  1.00782504E+00  1.00782504E+00  1.00782504E+00  1.00782504E+00
  1.00782504E+00  1.00782504E+00  1.00782504E+00  1.00782504E+00  1.00782504E+00
  1.00782504E+00
Atom fragment info                         I   N=          26
           0           0           0           0           0           0
           0           0           0           0           0           0
           0           0           0           0           0           0
           0           0           0           0           0           0
           0           0
Atom residue num                           I   N=          26
           0           0           0           0           0           0
           0           0           0           0           0           0
           0           0           0           0           0           0
           0           0           0           0           0           0
           0           0
Nuclear spins                              I   N=          26
           0           0           0           0           0           0
           0           0           1           1           1           1
           1           1           1           1           1           1
           1           1           1           1           1           1
           1           1
Nuclear ZEff                               R   N=          26
 -3.60000000E+00 -3.60000000E+00 -3.60000000E+00 -3.60000000E+00 -3.60000000E+00
 -3.60000000E+00 -3.60000000E+00 -3.60000000E+00 -1.00000000E+00 -1.00000000E+00
 -1.00000000E+00 -1.00000000E+00 -1.00000000E+00 -1.00000000E+00 -1.00000000E+00
 -1.00000000E+00 -1.00000000E+00 -1.00000000E+00 -1.00000000E+00 -1.00000000E+00
 -1.00000000E+00 -1.00000000E+00 -1.00000000E+00 -1.00000000E+00 -1.00000000E+00
 -1.00000000E+00
Nuclear QMom                               R   N=          26
  0.00000000E+00  0.00000000E+00  0.00000000E+00  0.00000000E+00  0.00000000E+00
  0.00000000E+00  0.00000000E+00  0.00000000E+00  0.00000000E+00  0.00000000E+00
  0.00000000E+00  0.00000000E+00  0.00000000E+00  0.00000000E+00  0.00000000E+00
  0.00000000E+00  0.00000000E+00  0.00000000E+00  0.00000000E+00  0.00000000E+00
  0.00000000E+00  0.00000000E+00  0.00000000E+00  0.00000000E+00  0.00000000E+00
  0.00000000E+00
Nuclear GFac                               R   N=          26
  0.00000000E+00  0.00000000E+00  0.00000000E+00  0.00000000E+00  0.00000000E+00
  0.00000000E+00  0.00000000E+00  0.00000000E+00  2.79284600E+00  2.79284600E+00
  2.79284600E+00  2.79284600E+00  2.79284600E+00  2.79284600E+00  2.79284600E+00
  2.79284600E+00  2.79284600E+00  2.79284600E+00  2.79284600E+00  2.79284600E+00
  2.79284600E+00  2.79284600E+00  2.79284600E+00  2.79284600E+00  2.79284600E+00
  2.79284600E+00
MicOpt                                     I   N=          26
          -1          -1          -1          -1          -1          -1
          -1          -1          -1          -1          -1          -1
          -1          -1          -1          -1          -1          -1
          -1          -1          -1          -1          -1          -1
          -1          -1
Number of contracted shells                I               68
Number of primitive shells                 I              160
Pure/Cartesian d shells                    I                1
Pure/Cartesian f shells                    I                0
Highest angular momentum                   I                2
Largest degree of contraction              I                6
Shell types                                I   N=          68
           0          -1          -1           2           0          -1
          -1           2           0          -1          -1           2
           0          -1          -1           2           0          -1
          -1           2           0          -1          -1           2
           0          -1          -1           2           0          -1
          -1           2           0           0           0           0
           0           0           0           0           0           0
           0           0           0           0           0           0
           0           0           0           0           0           0
           0           0           0           0           0           0
           0           0           0           0           0           0
           0           0
Number of primitives per shell             I   N=          68
           6           3           1           1           6           3
           1           1           6           3           1           1
           6           3           1           1           6           3
           1           1           6           3           1           1
           6           3           1           1           6           3
           1           1           3           1           3           1
           3           1           3           1           3           1
           3           1           3           1           3           1
           3           1           3           1           3           1
           3           1           3           1           3           1
           3           1           3           1           3           1
           3           1
Shell to atom map                          I   N=          68
           1           1           1           1           2           2
           2           2           3           3           3           3
           4           4           4           4           5           5
           5           5           6           6           6           6
           7           7           7           7           8           8
           8           8           9           9          10          10
          11          11          12          12          13          13
          14          14          15          15          16          16
          17          17          18          18          19          19
          20          20          21          21          22          22
          23          23          24          24          25          25
          26          26
Primitive exponents                        R   N=         160
  3.04752488E+03  4.57369518E+02  1.03948685E+02  2.92101553E+01  9.28666296E+00
  3.16392696E+00  7.86827235E+00  1.88128854E+00  5.44249258E-01  1.68714478E-01
  8.00000000E-01  3.04752488E+03  4.57369518E+02  1.03948685E+02  2.92101553E+01
  9.28666296E+00  3.16392696E+00  7.86827235E+00  1.88128854E+00  5.44249258E-01
  1.68714478E-01  8.00000000E-01  3.04752488E+03  4.57369518E+02  1.03948685E+02
  2.92101553E+01  9.28666296E+00  3.16392696E+00  7.86827235E+00  1.88128854E+00
  5.44249258E-01  1.68714478E-01  8.00000000E-01  3.04752488E+03  4.57369518E+02
  1.03948685E+02  2.92101553E+01  9.28666296E+00  3.16392696E+00  7.86827235E+00
  1.88128854E+00  5.44249258E-01  1.68714478E-01  8.00000000E-01  3.04752488E+03
  4.57369518E+02  1.03948685E+02  2.92101553E+01  9.28666296E+00  3.16392696E+00
  7.86827235E+00  1.88128854E+00  5.44249258E-01  1.68714478E-01  8.00000000E-01
  3.04752488E+03  4.57369518E+02  1.03948685E+02  2.92101553E+01  9.28666296E+00
  3.16392696E+00  7.86827235E+00  1.88128854E+00  5.44249258E-01  1.68714478E-01
  8.00000000E-01  3.04752488E+03  4.57369518E+02  1.03948685E+02  2.92101553E+01
  9.28666296E+00  3.16392696E+00  7.86827235E+00  1.88128854E+00  5.44249258E-01
  1.68714478E-01  8.00000000E-01  3.04752488E+03  4.57369518E+02  1.03948685E+02
  2.92101553E+01  9.28666296E+00  3.16392696E+00  7.86827235E+00  1.88128854E+00
  5.44249258E-01  1.68714478E-01  8.00000000E-01  1.87311370E+01  2.82539436E+00
  6.40121692E-01  1.61277759E-01  1.87311370E+01  2.82539436E+00  6.40121692E-01
  1.61277759E-01  1.87311370E+01  2.82539436E+00  6.40121692E-01  1.61277759E-01
  1.87311370E+01  2.82539436E+00  6.40121692E-01  1.61277759E-01  1.87311370E+01
  2.82539436E+00  6.40121692E-01  1.61277759E-01  1.87311370E+01  2.82539436E+00
  6.40121692E-01  1.61277759E-01  1.87311370E+01  2.82539436E+00  6.40121692E-01
  1.61277759E-01  1.87311370E+01  2.82539436E+00  6.40121692E-01  1.61277759E-01
  1.87311370E+01  2.82539436E+00  6.40121692E-01  1.61277759E-01  1.87311370E+01
  2.82539436E+00  6.40121692E-01  1.61277759E-01  1.87311370E+01  2.82539436E+00
  6.40121692E-01  1.61277759E-01  1.87311370E+01  2.82539436E+00  6.40121692E-01
  1.61277759E-01  1.87311370E+01  2.82539436E+00  6.40121692E-01  1.61277759E-01
  1.87311370E+01  2.82539436E+00  6.40121692E-01  1.61277759E-01  1.87311370E+01
  2.82539436E+00  6.40121692E-01  1.61277759E-01  1.87311370E+01  2.82539436E+00
  6.40121692E-01  1.61277759E-01  1.87311370E+01  2.82539436E+00  6.40121692E-01
  1.61277759E-01  1.87311370E+01  2.82539436E+00  6.40121692E-01  1.61277759E-01
Contraction coefficients                   R   N=         160
  1.83473713E-03  1.40373228E-02  6.88426223E-02  2.32184443E-01  4.67941348E-01
  3.62311985E-01 -1.19332420E-01 -1.60854152E-01  1.14345644E+00  1.00000000E+00
  1.00000000E+00  1.83473713E-03  1.40373228E-02  6.88426223E-02  2.32184443E-01
  4.67941348E-01  3.62311985E-01 -1.19332420E-01 -1.60854152E-01  1.14345644E+00
  1.00000000E+00  1.00000000E+00  1.83473713E-03  1.40373228E-02  6.88426223E-02
  2.32184443E-01  4.67941348E-01  3.62311985E-01 -1.19332420E-01 -1.60854152E-01
  1.14345644E+00  1.00000000E+00  1.00000000E+00  1.83473713E-03  1.40373228E-02
  6.88426223E-02  2.32184443E-01  4.67941348E-01  3.62311985E-01 -1.19332420E-01
 -1.60854152E-01  1.14345644E+00  1.00000000E+00  1.00000000E+00  1.83473713E-03
  1.40373228E-02  6.88426223E-02  2.32184443E-01  4.67941348E-01  3.62311985E-01
 -1.19332420E-01 -1.60854152E-01  1.14345644E+00  1.00000000E+00  1.00000000E+00
  1.83473713E-03  1.40373228E-02  6.88426223E-02  2.32184443E-01  4.67941348E-01
  3.62311985E-01 -1.19332420E-01 -1.60854152E-01  1.14345644E+00  1.00000000E+00
  1.00000000E+00  1.83473713E-03  1.40373228E-02  6.88426223E-02  2.32184443E-01
  4.67941348E-01  3.62311985E-01 -1.19332420E-01 -1.60854152E-01  1.14345644E+00
  1.00000000E+00  1.00000000E+00  1.83473713E-03  1.40373228E-02  6.88426223E-02
  2.32184443E-01  4.67941348E-01  3.62311985E-01 -1.19332420E-01 -1.60854152E-01
  1.14345644E+00  1.00000000E+00  1.00000000E+00  3.34946043E-02  2.34726953E-01
  8.13757326E-01  1.00000000E+00  3.34946043E-02  2.34726953E-01  8.13757326E-01
  1.00000000E+00  3.34946043E-02  2.34726953E-01  8.13757326E-01  1.00000000E+00
  3.34946043E-02  2.34726953E-01  8.13757326E-01  1.00000000E+00  3.34946043E-02
  2.34726953E-01  8.13757326E-01  1.00000000E+00  3.34946043E-02  2.34726953E-01
  8.13757326E-01  1.00000000E+00  3.34946043E-02  2.34726953E-01  8.13757326E-01
  1.00000000E+00  3.34946043E-02  2.34726953E-01  8.13757326E-01  1.00000000E+00
  3.34946043E-02  2.34726953E-01  8.13757326E-01  1.00000000E+00  3.34946043E-02
  2.34726953E-01  8.13757326E-01  1.00000000E+00  3.34946043E-02  2.34726953E-01
  8.13757326E-01  1.00000000E+00  3.34946043E-02  2.34726953E-01  8.13757326E-01
  1.00000000E+00  3.34946043E-02  2.34726953E-01  8.13757326E-01  1.00000000E+00
  3.34946043E-02  2.34726953E-01  8.13757326E-01  1.00000000E+00  3.34946043E-02
  2.34726953E-01  8.13757326E-01  1.00000000E+00  3.34946043E-02  2.34726953E-01
  8.13757326E-01  1.00000000E+00  3.34946043E-02  2.34726953E-01  8.13757326E-01
  1.00000000E+00  3.34946043E-02  2.34726953E-01  8.13757326E-01  1.00000000E+00
P(S=P) Contraction coefficients            R   N=         160
  0.00000000E+00  0.00000000E+00  0.00000000E+00  0.00000000E+00  0.00000000E+00
  0.00000000E+00  6.89990666E-02  3.16423961E-01  7.44308291E-01  1.00000000E+00
  0.00000000E+00  0.00000000E+00  0.00000000E+00  0.00000000E+00  0.00000000E+00
  0.00000000E+00  0.00000000E+00  6.89990666E-02  3.16423961E-01  7.44308291E-01
  1.00000000E+00  0.00000000E+00  0.00000000E+00  0.00000000E+00  0.00000000E+00
  0.00000000E+00  0.00000000E+00  0.00000000E+00  6.89990666E-02  3.16423961E-01
  7.44308291E-01  1.00000000E+00  0.00000000E+00  0.00000000E+00  0.00000000E+00
  0.00000000E+00  0.00000000E+00  0.00000000E+00  0.00000000E+00  6.89990666E-02
  3.16423961E-01  7.44308291E-01  1.00000000E+00  0.00000000E+00  0.00000000E+00
  0.00000000E+00  0.00000000E+00  0.00000000E+00  0.00000000E+00  0.00000000E+00
  6.89990666E-02  3.16423961E-01  7.44308291E-01  1.00000000E+00  0.00000000E+00
  0.00000000E+00  0.00000000E+00  0.00000000E+00  0.00000000E+00  0.00000000E+00
  0.00000000E+00  6.89990666E-02  3.16423961E-01  7.44308291E-01  1.00000000E+00
  0.00000000E+00  0.00000000E+00  0.00000000E+00  0.00000000E+00  0.00000000E+00
  0.00000000E+00  0.00000000E+00  6.89990666E-02  3.16423961E-01  7.44308291E-01
  1.00000000E+00  0.00000000E+00  0.00000000E+00  0.00000000E+00  0.00000000E+00
  0.00000000E+00  0.00000000E+00  0.00000000E+00  6.89990666E-02  3.16423961E-01
  7.44308291E-01  1.00000000E+00  0.00000000E+00  0.00000000E+00  0.00000000E+00
  0.00000000E+00  0.00000000E+00  0.00000000E+00  0.00000000E+00  0.00000000E+00
  0.00000000E+00  0.00000000E+00  0.00000000E+00  0.00000000E+00  0.00000000E+00
  0.00000000E+00  0.00000000E+00  0.00000000E+00  0.00000000E+00  0.00000000E+00
  0.00000000E+00  0.00000000E+00  0.00000000E+00  0.00000000E+00  0.00000000E+00
  0.00000000E+00  0.00000000E+00  0.00000000E+00  0.00000000E+00  0.00000000E+00
  0.00000000E+00  0.00000000E+00  0.00000000E+00  0.00000000E+00  0.00000000E+00
  0.00000000E+00  0.00000000E+00  0.00000000E+00  0.00000000E+00  0.00000000E+00
  0.00000000E+00  0.00000000E+00  0.00000000E+00  0.00000000E+00  0.00000000E+00
  0.00000000E+00  0.00000000E+00  0.00000000E+00  0.00000000E+00  0.00000000E+00
  0.00000000E+00  0.00000000E+00  0.00000000E+00  0.00000000E+00  0.00000000E+00
  0.00000000E+00  0.00000000E+00  0.00000000E+00  0.00000000E+00  0.00000000E+00
  0.00000000E+00  0.00000000E+00  0.00000000E+00  0.00000000E+00  0.00000000E+00
  0.00000000E+00  0.00000000E+00  0.00000000E+00  0.00000000E+00  0.00000000E+00
  0.00000000E+00  0.00000000E+00  0.00000000E+00  0.00000000E+00  0.00000000E+00
Coordinates of each shell                  R   N=         204
 -1.48360755E+00 -9.13188165E-08  5.21805879E-07 -1.48360755E+00 -9.13188165E-08
  5.21805879E-07 -1.48360755E+00 -9.13188165E-08  5.21805879E-07 -1.48360755E+00
 -9.13188165E-08  5.21805879E-07  1.48360746E+00 -1.80772628E-06 -1.55258481E-06
  1.48360746E+00 -1.80772628E-06 -1.55258481E-06  1.48360746E+00 -1.80772628E-06
 -1.55258481E-06  1.48360746E+00 -1.80772628E-06 -1.55258481E-06 -2.53974669E+00
 -9.34346265E-01 -2.53659575E+00 -2.53974669E+00 -9.34346265E-01 -2.53659575E+00
 -2.53974669E+00 -9.34346265E-01 -2.53659575E+00 -2.53974669E+00 -9.34346265E-01
 -2.53659575E+00 -2.53974271E+00 -1.72958420E+00  2.07746974E+00 -2.53974271E+00
 -1.72958420E+00  2.07746974E+00 -2.53974271E+00 -1.72958420E+00  2.07746974E+00
 -2.53974271E+00 -1.72958420E+00  2.07746974E+00 -2.53973823E+00  2.66393468E+00
  4.59132488E-01 -2.53973823E+00  2.66393468E+00  4.59132488E-01 -2.53973823E+00
  2.66393468E+00  4.59132488E-01 -2.53973823E+00  2.66393468E+00  4.59132488E-01
  2.53974029E+00  2.16254533E+00 -1.62195585E+00  2.53974029E+00  2.16254533E+00
 -1.62195585E+00  2.53974029E+00  2.16254533E+00 -1.62195585E+00  2.53974029E+00
  2.16254533E+00 -1.62195585E+00  2.53974060E+00 -2.48592855E+00 -1.06184261E+00
  2.53974060E+00 -2.48592855E+00 -1.06184261E+00  2.53974060E+00 -2.48592855E+00
 -1.06184261E+00  2.53974060E+00 -2.48592855E+00 -1.06184261E+00  2.53974682E+00
  3.23381035E-01  2.68379290E+00  2.53974682E+00  3.23381035E-01  2.68379290E+00
  2.53974682E+00  3.23381035E-01  2.68379290E+00  2.53974682E+00  3.23381035E-01
  2.68379290E+00 -2.15734182E+00 -2.94291347E+00 -2.83462454E+00 -2.15734182E+00
 -2.94291347E+00 -2.83462454E+00 -4.59464204E+00 -6.82734308E-01 -2.56265304E+00
 -4.59464204E+00 -6.82734308E-01 -2.56265304E+00 -1.76533620E+00  1.18063829E-01
 -4.13934341E+00 -1.76533620E+00  1.18063829E-01 -4.13934341E+00 -2.15737918E+00
 -9.83373548E-01  3.96595145E+00 -2.15737918E+00 -9.83373548E-01  3.96595145E+00
 -1.76529301E+00 -3.64379530E+00  1.96745817E+00 -1.76529301E+00 -3.64379530E+00
  1.96745817E+00 -4.59463178E+00 -1.87799768E+00  1.87256564E+00 -4.59463178E+00
 -1.87799768E+00  1.87256564E+00 -2.15735855E+00  3.92630895E+00 -1.13133724E+00
 -2.15735855E+00  3.92630895E+00 -1.13133724E+00 -4.59462910E+00  2.56069395E+00
  6.90097612E-01 -4.59462910E+00  2.56069395E+00  6.90097612E-01 -1.76529822E+00
  3.52575698E+00  2.17190304E+00 -1.76529822E+00  3.52575698E+00  2.17190304E+00
  4.59463236E+00  1.96545210E+00 -1.78055423E+00  4.59463236E+00  1.96545210E+00
 -1.78055423E+00  2.15735262E+00  4.01073613E+00 -7.80904630E-01  2.15735262E+00
  4.01073613E+00 -7.80904630E-01  1.76530818E+00  2.14977968E+00 -3.53928988E+00
  1.76530818E+00  2.14977968E+00 -3.53928988E+00  1.76528964E+00 -4.14000675E+00
 -9.21363160E-02  1.76528964E+00 -4.14000675E+00 -9.21363160E-02  2.15737857E+00
 -2.68164382E+00 -3.08295399E+00  2.15737857E+00 -2.68164382E+00 -3.08295399E+00
  4.59462983E+00 -2.52474332E+00 -8.11831065E-01  4.59462983E+00 -2.52474332E+00
 -8.11831065E-01  2.15734850E+00 -1.32907855E+00  3.86385430E+00  2.15734850E+00
 -1.32907855E+00  3.86385430E+00  4.59464076E+00  5.59260472E-01  2.59239938E+00
  4.59464076E+00  5.59260472E-01  2.59239938E+00  1.76532958E+00  1.99023388E+00
  3.63139940E+00  1.76532958E+00  1.99023388E+00  3.63139940E+00
Constraint Structure                       R   N=          78
 -1.48360755E+00 -9.13188165E-08  5.21805879E-07  1.48360746E+00 -1.80772628E-06
 -1.55258481E-06 -2.53974669E+00 -9.34346265E-01 -2.53659575E+00 -2.53974271E+00
 -1.72958420E+00  2.07746974E+00 -2.53973823E+00  2.66393468E+00  4.59132488E-01
  2.53974029E+00  2.16254533E+00 -1.62195585E+00  2.53974060E+00 -2.48592855E+00
 -1.06184261E+00  2.53974682E+00  3.23381035E-01  2.68379290E+00 -2.15734182E+00
 -2.94291347E+00 -2.83462454E+00 -4.59464204E+00 -6.82734308E-01 -2.56265304E+00
 -1.76533620E+00  1.18063829E-01 -4.13934341E+00 -2.15737918E+00 -9.83373548E-01
  3.96595145E+00 -1.76529301E+00 -3.64379530E+00  1.96745817E+00 -4.59463178E+00
 -1.87799768E+00  1.87256564E+00 -2.15735855E+00  3.92630895E+00 -1.13133724E+00
 -4.59462910E+00  2.56069395E+00  6.90097612E-01 -1.76529822E+00  3.52575698E+00
  2.17190304E+00  4.59463236E+00  1.96545210E+00 -1.78055423E+00  2.15735262E+00
  4.01073613E+00 -7.80904630E-01  1.76530818E+00  2.14977968E+00 -3.53928988E+00
  1.76528964E+00 -4.14000675E+00 -9.21363160E-02  2.15737857E+00 -2.68164382E+00
 -3.08295399E+00  4.59462983E+00 -2.52474332E+00 -8.11831065E-01  2.15734850E+00
 -1.32907855E+00  3.86385430E+00  4.59464076E+00  5.59260472E-01  2.59239938E+00
  1.76532958E+00  1.99023388E+00  3.63139940E+00
Num ILSW                                   I              100
ILSW                                       I   N=         100
           0           1           0           0           2           0
           0           0           0           0           0          -1
           0           0           0           0           0           0
           0           0           0           0           1           0
           1           0           0           0           0           0
           0           0      100000           0          -1           0
           0           0           0           0           0           0
           0           0           0           1           1           0
           0           0           1           0           0           0
           0           0           4          40           0           0
           0           0           0           0           0           0
           0           0           0           0           0           0
           0           0           0           0           0           0
           0           0           0           0           0           0
           0           0           0           0           0           0
           0           0           0           0           0           0
           0           0           0           0
Num RLSW                                   I               40
RLSW                                       R   N=          40
  1.00000000E+00  1.00000000E+00  1.00000000E+00  1.00000000E+00  1.00000000E+00
  0.00000000E+00  0.00000000E+00  1.00000000E+00  0.00000000E+00  0.00000000E+00
  0.00000000E+00  0.00000000E+00  1.00000000E+00  0.00000000E+00  0.00000000E+00
  0.00000000E+00  0.00000000E+00  1.00000000E+00  0.00000000E+00  0.00000000E+00
  0.00000000E+00  0.00000000E+00  1.00000000E+00  0.00000000E+00  0.00000000E+00
  0.00000000E+00  0.00000000E+00  1.00000000E+00  0.00000000E+00  0.00000000E+00
  0.00000000E+00  0.00000000E+00  0.00000000E+00  0.00000000E+00  0.00000000E+00
  0.00000000E+00  0.00000000E+00  0.00000000E+00  1.00000000E+00  1.00000000E+00
MxBond                                     I                4
NBond                                      I   N=          26
           4           4           4           4           4           4
           4           4           1           1           1           1
           1           1           1           1           1           1
           1           1           1           1           1           1
           1           1
IBond                                      I   N=         104
           2           3           4           5           1           6
           7           8           1           9          10          11
           1          12          13          14           1          15
          16          17           2          18          19          20
           2          21          22          23           2          24
          25          26           3           0           0           0
           3           0           0           0           3           0
           0           0           4           0           0           0
           4           0           0           0           4           0
           0           0           5           0           0           0
           5           0           0           0           5           0
           0           0           6           0           0           0
           6           0           0           0           6           0
           0           0           7           0           0           0
           7           0           0           0           7           0
           0           0           8           0           0           0
           8           0           0           0           8           0
           0           0
RBond                                      R   N=         104
  1.00000000E+00  1.00000000E+00  1.00000000E+00  1.00000000E+00  1.00000000E+00
  1.00000000E+00  1.00000000E+00  1.00000000E+00  1.00000000E+00  1.00000000E+00
  1.00000000E+00  1.00000000E+00  1.00000000E+00  1.00000000E+00  1.00000000E+00
  1.00000000E+00  1.00000000E+00  1.00000000E+00  1.00000000E+00  1.00000000E+00
  1.00000000E+00  1.00000000E+00  1.00000000E+00  1.00000000E+00  1.00000000E+00
  1.00000000E+00  1.00000000E+00  1.00000000E+00  1.00000000E+00  1.00000000E+00
  1.00000000E+00  1.00000000E+00  1.00000000E+00  0.00000000E+00  0.00000000E+00
  0.00000000E+00  1.00000000E+00  0.00000000E+00  0.00000000E+00  0.00000000E+00
  1.00000000E+00  0.00000000E+00  0.00000000E+00  0.00000000E+00  1.00000000E+00
  0.00000000E+00  0.00000000E+00  0.00000000E+00  1.00000000E+00  0.00000000E+00
  0.00000000E+00  0.00000000E+00  1.00000000E+00  0.00000000E+00  0.00000000E+00
  0.00000000E+00  1.00000000E+00  0.00000000E+00  0.00000000E+00  0.00000000E+00
  1.00000000E+00  0.00000000E+00  0.00000000E+00  0.00000000E+00  1.00000000E+00
  0.00000000E+00  0.00000000E+00  0.00000000E+00  1.00000000E+00  0.00000000E+00
  0.00000000E+00  0.00000000E+00  1.00000000E+00  0.00000000E+00  0.00000000E+00
  0.00000000E+00  1.00000000E+00  0.00000000E+00  0.00000000E+00  0.00000000E+00
  1.00000000E+00  0.00000000E+00  0.00000000E+00  0.00000000E+00  1.00000000E+00
  0.00000000E+00  0.00000000E+00  0.00000000E+00  1.00000000E+00  0.00000000E+00
  0.00000000E+00  0.00000000E+00  1.00000000E+00  0.00000000E+00  0.00000000E+00
  0.00000000E+00  1.00000000E+00  0.00000000E+00  0.00000000E+00  0.00000000E+00
  1.00000000E+00  0.00000000E+00  0.00000000E+00  0.00000000E+00
Virial Ratio                               R      2.000777909829534E+00
SCF Energy                                 R     -3.134195871673223E+02
MP2 Energy                                 R     -3.144926434603886E+02
Total Energy                               R     -3.144926434603886E+02
Post-SCF wavefunction norm                 R      1.649849785522753E+00
RMS Force                                  R      1.419317876051681E-07
RMS Density                                R      3.804235127798766E-10
External E-field                           R   N=          35
  0.00000000E+00  0.00000000E+00  0.00000000E+00  0.00000000E+00  0.00000000E+00
  0.00000000E+00  0.00000000E+00  0.00000000E+00  0.00000000E+00  0.00000000E+00