opt=Tight                                                               
Freq      RMP2-FC                                                     6-31G(d)            
Number of atoms                            I                8
Info1-9                                    I   N=           9
          17          17        1002           0           0         100
           6           2           1
Charge                                     I               -1
Multiplicity                               I                1
Number of electrons                        I               40
Number of alpha electrons                  I               20
Number of beta electrons                   I               20
Number of basis functions                  I               81
Number of independent functions            I               81
Number of point charges in /Mol/           I                0
Number of translation vectors              I                0
Atomic numbers                             I   N=           8
           8           8           8           6           6           1
           1           1
Nuclear charges                            R   N=           8
  8.00000000E+00  8.00000000E+00  8.00000000E+00  6.00000000E+00  6.00000000E+00
  1.00000000E+00  1.00000000E+00  1.00000000E+00
Current cartesian coordinates              R   N=          24
  1.17770136E+00 -1.35511161E+00 -2.60603302E-05 -5.02378896E-01  2.63785493E+00
 -3.11821384E-06  3.70517320E+00 -2.66986779E-01  1.98933999E-05 -3.22090359E+00
 -1.01661396E+00  7.35766714E-06 -6.86449756E-01  3.16538998E-01 -7.89619261E-06
 -3.01761440E+00 -3.06647952E+00  5.82981978E-05 -4.29111883E+00 -4.29583325E-01
 -1.66628038E+00 -4.29111201E+00 -4.29539709E-01  1.66629960E+00
Force Field                                I                0
Int Atom Types                             I   N=           8
           0           0           0           0           0           0
           0           0
MM charges                                 R   N=           8
  0.00000000E+00  0.00000000E+00  0.00000000E+00  0.00000000E+00  0.00000000E+00
  0.00000000E+00  0.00000000E+00  0.00000000E+00
Integer atomic weights                     I   N=           8
          16          16          16          12          12           1
           1           1
Real atomic weights                        R   N=           8
  1.59949146E+01  1.59949146E+01  1.59949146E+01  1.20000000E+01  1.20000000E+01
  1.00782504E+00  1.00782504E+00  1.00782504E+00
Atom fragment info                         I   N=           8
           0           0           0           0           0           0
           0           0
Atom residue num                           I   N=           8
           0           0           0           0           0           0
           0           0
Nuclear spins                              I   N=           8
           0           0           0           0           0           1
           1           1
Nuclear ZEff                               R   N=           8
 -5.60000000E+00 -5.60000000E+00 -5.60000000E+00 -3.60000000E+00 -3.60000000E+00
 -1.00000000E+00 -1.00000000E+00 -1.00000000E+00
Nuclear QMom                               R   N=           8
  0.00000000E+00  0.00000000E+00  0.00000000E+00  0.00000000E+00  0.00000000E+00
  0.00000000E+00  0.00000000E+00  0.00000000E+00
Nuclear GFac                               R   N=           8
  0.00000000E+00  0.00000000E+00  0.00000000E+00  0.00000000E+00  0.00000000E+00
  2.79284600E+00  2.79284600E+00  2.79284600E+00
MicOpt                                     I   N=           8
          -1          -1          -1          -1          -1          -1
          -1          -1
Number of contracted shells                I               26
Number of primitive shells                 I               67
Pure/Cartesian d shells                    I                1
Pure/Cartesian f shells                    I                0
Highest angular momentum                   I                2
Largest degree of contraction              I                6
Shell types                                I   N=          26
           0          -1          -1           2           0          -1
          -1           2           0          -1          -1           2
           0          -1          -1           2           0          -1
          -1           2           0           0           0           0
           0           0
Number of primitives per shell             I   N=          26
           6           3           1           1           6           3
           1           1           6           3           1           1
           6           3           1           1           6           3
           1           1           3           1           3           1
           3           1
Shell to atom map                          I   N=          26
           1           1           1           1           2           2
           2           2           3           3           3           3
           4           4           4           4           5           5
           5           5           6           6           7           7
           8           8
Primitive exponents                        R   N=          67
  5.48467166E+03  8.25234946E+02  1.88046958E+02  5.29645000E+01  1.68975704E+01
  5.79963534E+00  1.55396162E+01  3.59993359E+00  1.01376175E+00  2.70005823E-01
  8.00000000E-01  5.48467166E+03  8.25234946E+02  1.88046958E+02  5.29645000E+01
  1.68975704E+01  5.79963534E+00  1.55396162E+01  3.59993359E+00  1.01376175E+00
  2.70005823E-01  8.00000000E-01  5.48467166E+03  8.25234946E+02  1.88046958E+02
  5.29645000E+01  1.68975704E+01  5.79963534E+00  1.55396162E+01  3.59993359E+00
  1.01376175E+00  2.70005823E-01  8.00000000E-01  3.04752488E+03  4.57369518E+02
  1.03948685E+02  2.92101553E+01  9.28666296E+00  3.16392696E+00  7.86827235E+00
  1.88128854E+00  5.44249258E-01  1.68714478E-01  8.00000000E-01  3.04752488E+03
  4.57369518E+02  1.03948685E+02  2.92101553E+01  9.28666296E+00  3.16392696E+00
  7.86827235E+00  1.88128854E+00  5.44249258E-01  1.68714478E-01  8.00000000E-01
  1.87311370E+01  2.82539436E+00  6.40121692E-01  1.61277759E-01  1.87311370E+01
  2.82539436E+00  6.40121692E-01  1.61277759E-01  1.87311370E+01  2.82539436E+00
  6.40121692E-01  1.61277759E-01
Contraction coefficients                   R   N=          67
  1.83107443E-03  1.39501722E-02  6.84450781E-02  2.32714336E-01  4.70192898E-01
  3.58520853E-01 -1.10777550E-01 -1.48026263E-01  1.13076702E+00  1.00000000E+00
  1.00000000E+00  1.83107443E-03  1.39501722E-02  6.84450781E-02  2.32714336E-01
  4.70192898E-01  3.58520853E-01 -1.10777550E-01 -1.48026263E-01  1.13076702E+00
  1.00000000E+00  1.00000000E+00  1.83107443E-03  1.39501722E-02  6.84450781E-02
  2.32714336E-01  4.70192898E-01  3.58520853E-01 -1.10777550E-01 -1.48026263E-01
  1.13076702E+00  1.00000000E+00  1.00000000E+00  1.83473713E-03  1.40373228E-02
  6.88426223E-02  2.32184443E-01  4.67941348E-01  3.62311985E-01 -1.19332420E-01
 -1.60854152E-01  1.14345644E+00  1.00000000E+00  1.00000000E+00  1.83473713E-03
  1.40373228E-02  6.88426223E-02  2.32184443E-01  4.67941348E-01  3.62311985E-01
 -1.19332420E-01 -1.60854152E-01  1.14345644E+00  1.00000000E+00  1.00000000E+00
  3.34946043E-02  2.34726953E-01  8.13757326E-01  1.00000000E+00  3.34946043E-02
  2.34726953E-01  8.13757326E-01  1.00000000E+00  3.34946043E-02  2.34726953E-01
  8.13757326E-01  1.00000000E+00
P(S=P) Contraction coefficients            R   N=          67
  0.00000000E+00  0.00000000E+00  0.00000000E+00  0.00000000E+00  0.00000000E+00
  0.00000000E+00  7.08742682E-02  3.39752839E-01  7.27158577E-01  1.00000000E+00
  0.00000000E+00  0.00000000E+00  0.00000000E+00  0.00000000E+00  0.00000000E+00
  0.00000000E+00  0.00000000E+00  7.08742682E-02  3.39752839E-01  7.27158577E-01
  1.00000000E+00  0.00000000E+00  0.00000000E+00  0.00000000E+00  0.00000000E+00
  0.00000000E+00  0.00000000E+00  0.00000000E+00  7.08742682E-02  3.39752839E-01
  7.27158577E-01  1.00000000E+00  0.00000000E+00  0.00000000E+00  0.00000000E+00
  0.00000000E+00  0.00000000E+00  0.00000000E+00  0.00000000E+00  6.89990666E-02
  3.16423961E-01  7.44308291E-01  1.00000000E+00  0.00000000E+00  0.00000000E+00
  0.00000000E+00  0.00000000E+00  0.00000000E+00  0.00000000E+00  0.00000000E+00
  6.89990666E-02  3.16423961E-01  7.44308291E-01  1.00000000E+00  0.00000000E+00
  0.00000000E+00  0.00000000E+00  0.00000000E+00  0.00000000E+00  0.00000000E+00
  0.00000000E+00  0.00000000E+00  0.00000000E+00  0.00000000E+00  0.00000000E+00
  0.00000000E+00  0.00000000E+00
Coordinates of each shell                  R   N=          78
  1.17770136E+00 -1.35511161E+00 -2.60603302E-05  1.17770136E+00 -1.35511161E+00
 -2.60603302E-05  1.17770136E+00 -1.35511161E+00 -2.60603302E-05  1.17770136E+00
 -1.35511161E+00 -2.60603302E-05 -5.02378896E-01  2.63785493E+00 -3.11821384E-06
 -5.02378896E-01  2.63785493E+00 -3.11821384E-06 -5.02378896E-01  2.63785493E+00
 -3.11821384E-06 -5.02378896E-01  2.63785493E+00 -3.11821384E-06  3.70517320E+00
 -2.66986779E-01  1.98933999E-05  3.70517320E+00 -2.66986779E-01  1.98933999E-05
  3.70517320E+00 -2.66986779E-01  1.98933999E-05  3.70517320E+00 -2.66986779E-01
  1.98933999E-05 -3.22090359E+00 -1.01661396E+00  7.35766714E-06 -3.22090359E+00
 -1.01661396E+00  7.35766714E-06 -3.22090359E+00 -1.01661396E+00  7.35766714E-06
 -3.22090359E+00 -1.01661396E+00  7.35766714E-06 -6.86449756E-01  3.16538998E-01
 -7.89619261E-06 -6.86449756E-01  3.16538998E-01 -7.89619261E-06 -6.86449756E-01
  3.16538998E-01 -7.89619261E-06 -6.86449756E-01  3.16538998E-01 -7.89619261E-06
 -3.01761440E+00 -3.06647952E+00  5.82981978E-05 -3.01761440E+00 -3.06647952E+00
  5.82981978E-05 -4.29111883E+00 -4.29583325E-01 -1.66628038E+00 -4.29111883E+00
 -4.29583325E-01 -1.66628038E+00 -4.29111201E+00 -4.29539709E-01  1.66629960E+00
 -4.29111201E+00 -4.29539709E-01  1.66629960E+00
Constraint Structure                       R   N=          24
  1.17770136E+00 -1.35511161E+00 -2.60603302E-05 -5.02378896E-01  2.63785493E+00
 -3.11821384E-06  3.70517320E+00 -2.66986779E-01  1.98933999E-05 -3.22090359E+00
 -1.01661396E+00  7.35766714E-06 -6.86449756E-01  3.16538998E-01 -7.89619261E-06
 -3.01761440E+00 -3.06647952E+00  5.82981978E-05 -4.29111883E+00 -4.29583325E-01
 -1.66628038E+00 -4.29111201E+00 -4.29539709E-01  1.66629960E+00
Num ILSW                                   I              100
ILSW                                       I   N=         100
           0           1           0           0           2           0
           0           0           0           0           0          -1
           0           0           0           0           0           0
           0           0           0           0           1           0
           1           0           0           0           0           0
           0           0      100000           0          -1           0
           0           0           0           0           0           0
           0           0           0           1           1           0
           0           0           1           0           0           0
           0           0           4          40           0           0
           0           0           0           0           0           0
           0           0           0           0           0           0
           0           0           0           0           0           0
           0           0           0           0           0           0
           0           0           0           0           0           0
           0           0           0           0           0           0
           0           0           0           0
Num RLSW                                   I               40
RLSW                                       R   N=          40
  1.00000000E+00  1.00000000E+00  1.00000000E+00  1.00000000E+00  1.00000000E+00
  0.00000000E+00  0.00000000E+00  1.00000000E+00  0.00000000E+00  0.00000000E+00
  0.00000000E+00  0.00000000E+00  1.00000000E+00  0.00000000E+00  0.00000000E+00
  0.00000000E+00  0.00000000E+00  1.00000000E+00  0.00000000E+00  0.00000000E+00
  0.00000000E+00  0.00000000E+00  1.00000000E+00  0.00000000E+00  0.00000000E+00
  0.00000000E+00  0.00000000E+00  1.00000000E+00  0.00000000E+00  0.00000000E+00
  0.00000000E+00  0.00000000E+00  0.00000000E+00  0.00000000E+00  0.00000000E+00
  0.00000000E+00  0.00000000E+00  0.00000000E+00  1.00000000E+00  1.00000000E+00
MxBond                                     I                4
NBond                                      I   N=           8
           2           1           1           4           3           1
           1           1
IBond                                      I   N=          32
           3           5           0           0           5           0
           0           0           1           0           0           0
           5           6           7           8           1           2
           4           0           4           0           0           0
           4           0           0           0           4           0
           0           0
RBond                                      R   N=          32
  1.00000000E+00  1.00000000E+00  0.00000000E+00  0.00000000E+00  2.00000000E+00
  0.00000000E+00  0.00000000E+00  0.00000000E+00  1.00000000E+00  0.00000000E+00
  0.00000000E+00  0.00000000E+00  1.00000000E+00  1.00000000E+00  1.00000000E+00
  1.00000000E+00  1.00000000E+00  2.00000000E+00  1.00000000E+00  0.00000000E+00
  1.00000000E+00  0.00000000E+00  0.00000000E+00  0.00000000E+00  1.00000000E+00
  0.00000000E+00  0.00000000E+00  0.00000000E+00  1.00000000E+00  0.00000000E+00
  0.00000000E+00  0.00000000E+00
Virial Ratio                               R      2.002914747197472E+00
SCF Energy                                 R     -3.020691657256031E+02
MP2 Energy                                 R     -3.028595110579781E+02
Total Energy                               R     -3.028595110579781E+02
Post-SCF wavefunction norm                 R      1.572682304735399E+00
RMS Force                                  R      5.953439879900657E-05
RMS Density                                R      6.160842166770965E-10
External E-field                           R   N=          35
  0.00000000E+00  0.00000000E+00  0.00000000E+00  0.00000000E+00  0.00000000E+00
  0.00000000E+00  0.00000000E+00  0.00000000E+00  0.00000000E+00  0.00000000E+00
  0.00000000E+00  0.00000000E+00  0.00000000E+00  0.00000000E+00  0.00000000E+00
  0.00000000E+00  0.00000000E+00  0.00000000E+00  0.00000000E+00  0.00000000E+00
  0.00000000E+00  0.00000000E+00  0.00000000E+00  0.00000000E+00  0.00000000E+00
  0.00000000E+00  0.00000000E+00  0.00000000E+00  0.00000000E+00  0.00000000E+00
  0.00000000E+00  0.00000000E+00  0.00000000E+00  0.00000000E+00  0.00000000E+00
IOpCl                                      I                0
IROHF                                      I                0
Alpha Orbital Energies                     R   N=          81
 -2.05792197E+01 -2.05138109E+01 -2.04717305E+01 -1.13512312E+01 -1.12196842E+01
 -1.41709526E+00 -1.31870576E+00 -1.09480602E+00 -9.70802243E-01 -7.26394391E-01
 -6.42614584E-01 -6.19726425E-01 -6.14773727E-01 -5.52607681E-01 -5.38241275E-01
 -4.72409014E-01 -4.53089586E-01 -4.12036500E-01 -3.62143026E-01 -3.37158110E-01
  2.15736021E-01  2.67767505E-01  3.18702127E-01  3.47333572E-01  3.65131135E-01
  4.25816535E-01  4.93575348E-01  5.81209623E-01  7.61865752E-01  8.14820981E-01
  8.46555555E-01  8.49359302E-01  8.60556013E-01  9.41202149E-01  1.02215916E+00
  1.09754317E+00  1.12090154E+00  1.13997224E+00  1.19152262E+00  1.21637387E+00
  1.23092663E+00  1.25355312E+00  1.29884374E+00  1.31247478E+00  1.35203258E+00
  1.39226856E+00  1.42329168E+00  1.54505678E+00  1.65145513E+00  1.70445101E+00
  1.71032323E+00  1.80613186E+00  1.89381150E+00  1.91997677E+00  2.10423238E+00
  2.11517071E+00  2.11962050E+00  2.15452080E+00  2.17985013E+00  2.21559275E+00
  2.26670689E+00  2.32650111E+00  2.37713591E+00  2.40424723E+00  2.56368920E+00
  2.57513841E+00  2.66118754E+00  2.71696041E+00  2.77055676E+00  2.79351861E+00
  3.07833162E+00  3.12459698E+00  3.17260509E+00  3.31274223E+00  3.52281791E+00
  3.54443372E+00  3.91782090E+00  4.38038105E+00  4.55071971E+00  4.59837240E+00
  4.89970629E+00
Alpha MO coefficients                      R   N=        6561
  9.94715315E-01  2.10702072E-02 -7.59538194E-05  1.20818393E-03  1.84814277E-08
  3.64973001E-03 -4.07562024E-04 -6.51564935E-04 -1.14431278E-08 -4.09723382E-03
 -3.92078293E-03 -3.82007458E-03 -1.03748341E-04 -6.29860996E-09 -4.13903102E-09
 -2.26389453E-04  6.87547933E-05 -2.55054001E-05  1.56350282E-05  4.69941510E-10
 -4.76779867E-04 -5.33477468E-05  1.08699273E-04 -2.95918331E-10  5.10609811E-05
  1.81750962E-05  2.27173209E-05  8.24291756E-05  5.68110974E-11 -3.65554391E-10
  1.25755173E-03  8.51446742E-05 -2.46002324E-04 -1.17198252E-04 -4.59313021E-09
  8.54058966E-05 -2.71505830E-04 -3.23544893E-05 -4.24589412E-09  2.27768822E-04
 -7.98590869E-06 -3.16307461E-05  1.05372427E-04  5.39893791E-09  1.78722475E-09
  8.42827400E-07  5.25640822E-05 -8.52970288E-06  1.00895031E-05 -1.38144242E-09
  1.89472367E-04 -9.51668796E-05 -8.93354747E-05  7.80867953E-09 -9.34355567E-05
 -7.30426189E-06  4.06653999E-06  3.14258487E-06  4.15412590E-10  2.25178290E-10
  2.05165730E-06  4.34151770E-04  2.26704028E-04 -1.85487506E-04 -1.89416226E-09
  9.30469124E-06 -2.50608751E-06  4.89651076E-04  2.94864573E-09 -1.01296555E-04
 -1.09378324E-04 -4.64051337E-05  1.36055826E-04  1.27290918E-09 -1.20315402E-09
  3.53069661E-05 -1.98851761E-04 -2.65719647E-06 -4.44959517E-05 -2.65821273E-06
 -4.45030378E-05  2.35728075E-04 -4.47748743E-05 -7.21438774E-06 -2.50901170E-05
  8.76460163E-11  2.12745064E-04 -6.43085795E-05  8.79638437E-05  1.43341820E-09
  1.02732129E-04 -9.64472344E-05 -6.75670919E-05 -1.95238702E-05 -1.12937510E-09
  2.89000947E-10  9.94685524E-01  2.10227385E-02 -1.21547880E-04 -1.45203200E-03
 -2.98325504E-09  4.35649358E-03  3.69704067E-05  6.85037566E-05  9.59608568E-12
 -3.90320498E-03 -3.66093811E-03 -4.08927948E-03  3.40454503E-05 -1.59273278E-09
  1.38770129E-09 -2.86182935E-05  1.87119726E-05  8.65375544E-07  1.07176091E-05
  1.62281347E-10 -5.03491832E-05  4.19514551E-05 -6.26923327E-06  6.76214542E-10
 -1.53565425E-05 -4.09722657E-07  2.18782390E-05 -1.42691533E-05 -1.04715645E-09
 -6.28892623E-10  2.66537414E-06  2.35895171E-05  4.19268115E-07 -2.10694130E-05
 -3.42108625E-10 -1.47736029E-04 -1.07372856E-04 -7.95482754E-05  2.63153971E-09
  2.74898459E-05 -4.70320102E-05 -1.09836214E-05 -3.70349230E-05 -4.98938220E-10
  6.23572080E-11 -4.08958070E-06  5.03638884E-04 -1.75361448E-05  1.95085069E-05
  2.99912903E-10 -3.30205423E-04 -2.09079713E-04 -3.77238323E-04  2.03975219E-10
 -5.98022638E-05 -7.57447607E-04 -4.26312816E-05 -2.32639442E-05  2.08714847E-10
 -1.90584930E-09  1.15677482E-05 -5.77327225E-05  1.55950566E-05 -2.44053817E-05
  1.55950242E-05 -2.44076099E-05 -1.31729389E-03  6.34459661E-05  2.67243662E-04
  1.24098434E-04  4.70853349E-09  3.05382110E-04  2.63772113E-04  2.12508385E-04
  6.24378930E-09  1.43527256E-04  4.79333663E-05 -3.80938787E-05  5.30104300E-05
  2.71167116E-09  2.49530772E-09  3.08547165E-05 -4.88708349E-06  7.51292023E-06
  1.13096248E-06 -2.22700534E-10  7.84850349E-05 -4.56598442E-05 -3.33126463E-05
  2.80747730E-10 -1.34711412E-05  4.97663972E-06  1.82635876E-06  1.82412462E-05
 -5.50822943E-11  3.79584129E-11  9.94851216E-01  2.07469109E-02 -1.00402434E-03
 -4.00585243E-04 -1.88346454E-08  3.02091951E-03  7.10326192E-04  2.84250935E-04
  1.31838524E-08 -4.17715244E-03 -3.60525254E-03 -3.50267370E-03 -3.08691560E-04
 -1.50186657E-08 -5.86631816E-09 -5.53734443E-06 -2.98817466E-05  1.30467107E-06
  4.80047910E-06  4.52665518E-10  1.12838496E-04  6.85911631E-05  2.61291467E-05
 -2.01143011E-09  9.21953639E-06  9.38171041E-07 -1.41022892E-05  8.67227478E-06
 -3.10225755E-11 -2.06472940E-10 -4.65185146E-06  3.24566463E-05 -6.54254434E-05
  1.79133518E-05  9.42517633E-11 -1.55437647E-04  3.11005807E-05 -5.45238466E-05
 -1.56485126E-09 -8.57837696E-05 -3.40667935E-05 -2.20722886E-05  2.83003478E-05
 -3.25758261E-11  3.55128981E-10 -1.43136916E-05  1.67550220E-05 -2.06392321E-06
 -3.28932412E-06 -2.06384684E-06 -3.28702422E-06 -1.19634509E-04  6.51017986E-04
 -2.25059474E-05  2.16148513E-04  2.13412881E-09 -1.73564847E-03  2.00521308E-04
 -1.79219157E-03 -1.88781360E-08 -2.93427943E-04 -2.03667935E-04  5.34748369E-04
  3.36055875E-04  8.36125514E-10 -9.63220479E-09 -2.47297139E-04  6.23569045E-04
  6.04859666E-05 -2.54637602E-04 -8.20197391E-10 -3.00567286E-03 -5.44563443E-04
  1.82038722E-03  8.61841394E-09  2.26275126E-04 -9.31881881E-05  4.19420693E-04
  7.58051061E-05  1.69172331E-09 -2.25344590E-09 -2.89913951E-06 -1.36958459E-04
 -6.54648513E-06 -3.76891466E-05 -1.81837870E-09  5.42166392E-04 -5.40561847E-04
 -2.46699378E-05 -4.44636746E-09  2.73457244E-04 -1.14338096E-04 -5.75607245E-05
  4.44014598E-05  5.02414999E-09  1.98201997E-10  2.20394248E-03  7.73274041E-05
 -1.06724586E-04 -2.09186696E-05 -1.72503806E-09  4.05017637E-03  2.02918352E-03
  6.37418088E-04 -1.17534214E-09 -4.63130527E-04 -2.34062079E-04 -1.44314341E-04
 -1.86842913E-04  2.67621439E-09 -2.14147659E-10  9.95907175E-01  2.58964911E-02
  6.73368636E-04 -3.60632909E-05 -4.27989914E-09 -6.05289764E-03  3.14147220E-03
  2.71362470E-03 -1.88804842E-08 -1.21538316E-03 -4.18439112E-04 -2.26940022E-03
 -2.46194845E-04 -7.74126245E-09  7.39196849E-09 -1.52570587E-04 -4.66108524E-05
 -1.58939139E-04  3.03537421E-04 -1.58938922E-04  3.03526347E-04 -1.58411445E-05
 -1.70628309E-04  6.99919646E-05 -1.08053213E-05  1.33759129E-09  2.28828010E-04
 -3.89549778E-04  1.58955691E-04 -9.22886616E-09  2.34653149E-05 -2.05156228E-05
 -1.42726611E-04 -6.68496714E-05 -2.08623869E-09 -4.98826767E-10 -5.05886975E-05
 -2.90244169E-04  4.65050911E-05  2.32108103E-05  7.24598942E-10  1.15201614E-03
  1.52035696E-04 -4.45223958E-04 -7.57615277E-09 -1.21428031E-04 -1.06273932E-06
 -2.83066829E-04 -2.14982106E-06 -1.28644147E-09  1.90469773E-09 -3.22436096E-05
 -1.31498018E-04  2.46067203E-05 -1.08322305E-05  9.35003054E-10  6.20792358E-04
 -2.68390987E-04  9.96708803E-07 -4.50255188E-09 -5.71077951E-05 -9.30401276E-05
 -1.19672581E-04 -2.74258421E-07  6.57610093E-10 -3.03806105E-10  9.95705743E-01
  2.87529137E-02  1.27001938E-04  1.51188998E-04  3.41080496E-09 -1.56527052E-02
 -8.79720658E-04 -6.11734839E-04 -3.17122647E-08 -1.92130701E-03 -1.88015724E-03
 -1.87979623E-03 -1.19394289E-05  1.02604760E-08 -6.85624157E-09 -2.55347884E-03
 -2.30732090E-05 -4.33768061E-05 -4.12243042E-05  5.15057420E-10  3.39972066E-03
 -2.22100067E-03 -1.30955672E-03  2.46057066E-08 -4.92199945E-04 -4.07610584E-04
 -1.60246570E-04 -1.41149615E-04  1.98420554E-09  3.94071665E-10  1.58014578E-04
  2.47181270E-03  1.47476881E-04  2.60804824E-03  1.47495497E-04  2.60804572E-03
 -1.62661151E-01  3.65703810E-01 -1.98649245E-02  7.73653909E-02  1.34995206E-06
  3.34124018E-01 -1.24964018E-02  4.41828434E-02  6.29893994E-07  1.50648325E-02
  1.02894609E-02 -1.99452052E-03 -3.26918891E-03  1.43666768E-07  2.59228943E-07
 -8.69089000E-02  1.90745144E-01  1.74825879E-03 -7.03589002E-02 -1.92963596E-07
  1.76087244E-01  8.80419223E-03 -2.91623650E-02 -1.11591035E-07 -2.12891487E-03
  1.08400799E-02  7.33287055E-05 -1.77993016E-03  7.86499684E-09  3.37031234E-08
 -6.78909365E-02  1.49152306E-01 -5.24850362E-02 -1.69568466E-02 -8.23954967E-07
  1.18799804E-01 -1.79254555E-02 -4.37157474E-03 -2.43073013E-07  1.47991395E-02
  5.28750045E-04 -2.35737040E-03  6.47352816E-03  3.22961945E-07  1.32502986E-07
 -1.57916452E-02  3.26651370E-02  2.30977398E-02  9.42520525E-03 -1.50031485E-07
 -1.30773843E-02 -5.91970222E-03 -8.15936888E-03  1.69803331E-07  6.24562572E-03
  1.39551052E-03  1.82092071E-04  3.29398137E-03 -3.65335179E-08 -3.62363030E-08
 -1.06185861E-01  2.05539979E-01  7.97306039E-02  3.59954693E-03 -4.51354032E-07
  5.03204395E-02 -4.04272814E-02 -1.17544205E-02  1.38716329E-07  7.71933553E-04
  1.52931424E-02 -1.66882040E-02 -1.50524739E-02 -1.76140899E-07  1.73422172E-07
  7.19290147E-03 -2.64797694E-04  5.90290963E-03  1.55020537E-03  5.90288624E-03
  1.55007904E-03  9.74408568E-02 -2.17226230E-01 -1.76049849E-02 -1.91204279E-02
 -8.06245106E-07 -2.18909569E-01 -6.37141571E-04 -9.12314028E-03 -4.02081103E-07
 -9.47780637E-03  5.19838711E-04  1.94793946E-03 -4.74418172E-03 -1.55952993E-07
 -1.18033052E-07 -1.77223662E-01  3.85546192E-01 -1.81119241E-02 -1.06264356E-01
 -2.05495357E-07  3.78591729E-01 -1.06330771E-02 -4.12262046E-02 -1.04735206E-07
 -3.06575371E-03  1.32039380E-02 -2.73083293E-03  3.59064349E-03  3.33806900E-09
  4.09802124E-08  5.71758137E-02 -1.27109282E-01  3.34178392E-02  1.67906181E-02
  5.97671235E-07 -1.08413276E-01  1.22125561E-02  6.18938281E-03  2.12383513E-07
 -9.74892321E-03 -3.69107028E-04  1.16452242E-03 -5.24711136E-03 -2.17317705E-07
 -9.38267251E-08 -8.98431075E-03  1.71450379E-02  6.94236703E-03  1.49246854E-02
 -2.74846389E-08  3.85887681E-03 -5.52226552E-03  1.00129113E-02 -5.34177109E-08
  1.28967760E-03  1.93649419E-03  5.19484991E-04  3.64344532E-03 -2.71223354E-09
  2.15984790E-09 -6.25580091E-02  1.22097795E-01 -4.19880313E-02  2.04943046E-01
  7.51943138E-07  4.20951947E-02  3.27922899E-03 -2.25017148E-02 -1.12098023E-08
 -2.09455299E-02  2.62423366E-02 -1.01587979E-02  1.52103791E-02  1.19141977E-07
  3.59530319E-08  9.98800216E-04  8.15744501E-04  4.84326026E-03  7.26907590E-05
  4.84333773E-03  7.28171199E-05  6.22274221E-02 -1.38695318E-01  1.98445539E-01
 -3.25480820E-03  1.27070387E-06 -1.80769055E-01  9.26648503E-02 -4.82744598E-03
  4.96923267E-07  7.41926255E-03  2.13875728E-04 -9.83257431E-04  2.03604761E-02
  5.01339222E-07  1.74709893E-07 -3.83085121E-02  8.12538124E-02  1.05311007E-03
  2.37102156E-03  1.21921518E-07  1.03294587E-01 -2.61496584E-03  2.33974155E-03
  8.86636871E-08  1.81050912E-04 -1.04462543E-03 -1.74431751E-03  1.35437153E-03
 -5.65562103E-09 -3.23642297E-08 -1.84114179E-01  4.10908148E-01 -4.94545632E-03
 -7.84114129E-03 -1.77350378E-07  4.47200428E-01 -4.95580113E-03 -2.44400998E-03
 -6.25039486E-08  4.54973553E-03  1.16641410E-03 -1.48337005E-04  2.85241511E-03
  1.00064133E-07  6.27370083E-08  4.91389337E-02 -9.24182214E-02 -3.60941792E-02
 -5.25560440E-03  2.76631145E-07 -7.77838174E-02 -7.38347378E-03  6.65360151E-03
 -1.89104943E-07 -6.00876693E-03 -1.51443177E-03 -6.00572576E-04 -1.83643595E-03
 -7.98527852E-10  1.16385563E-07  6.22989215E-02 -1.28652302E-01 -2.30712154E-02
  1.37624540E-01  9.58693320E-07 -5.46035793E-02  1.55665004E-02 -3.33799359E-04
  3.85367322E-08 -8.05549351E-03 -1.89811680E-03  7.65498613E-03  1.17964405E-02
  2.39381456E-07 -1.85367513E-07 -3.03679952E-02 -1.13079352E-03 -2.34757766E-02
 -2.83832558E-03 -2.34754650E-02 -2.83808345E-03  5.12188270E-02 -1.17337871E-01
  2.44322300E-02 -1.03617664E-02  1.02181720E-06 -1.51925226E-01  1.49587323E-02
 -6.94572853E-03  5.59541503E-07  4.35490474E-03 -2.87073906E-03 -7.79678646E-04
  4.17127116E-03  5.05827811E-08  5.84448504E-08  3.12274782E-02 -6.78044377E-02
 -4.11013085E-02 -9.74737916E-03  3.69486925E-07 -9.31986349E-02 -1.74634059E-02
 -1.93854447E-03  2.56194086E-07  1.52123041E-03 -3.68964903E-04  7.11568598E-04
  4.62833728E-03  1.49654580E-08 -5.92815362E-08 -6.63093642E-02  1.48378757E-01
  2.73044473E-02  6.53122074E-03  5.18271005E-07  1.82734787E-01  1.23323053E-02
  1.91174643E-03  2.17904341E-07 -4.41674873E-03 -7.13810653E-05  8.30766298E-04
 -1.79002758E-03 -1.21241104E-07 -4.06549100E-08 -1.78116007E-01  3.30980245E-01
  1.24762542E-02  1.68723615E-02 -1.98985924E-07  3.42596089E-01  1.93295565E-03
  3.21087549E-03  5.13410948E-07  6.29301835E-03  8.19871135E-03  9.50310956E-03
 -8.14128344E-04  2.06141030E-07 -2.91945949E-07 -3.63648193E-02  8.04618404E-02
 -1.74615126E-01 -5.30610982E-02  1.31863002E-06  5.69553342E-02 -1.74829780E-02
 -6.45603287E-03  7.97112595E-09  1.23145298E-02 -5.24719228E-03 -1.18787878E-03
  1.78217408E-02  3.24058802E-09 -1.49471362E-07  1.12614529E-01  2.18868069E-02
  1.18867890E-01  2.72095089E-02  1.18866751E-01  2.72092216E-02  7.57094806E-02
 -1.75794147E-01 -1.86430288E-01  2.31060996E-01  3.30944245E-06 -2.67347537E-01
 -9.53169265E-02  1.42269404E-01  2.05464586E-06 -1.53846404E-03  1.13487561E-02
 -4.23024916E-03 -1.57022914E-02 -2.65729048E-07  2.66315509E-07  7.33155627E-02
 -1.63055995E-01  4.48113279E-03 -2.19802904E-01 -2.66414120E-07 -2.59532427E-01
  1.39893865E-02 -1.28502910E-01 -1.90532057E-07 -3.84905041E-03  1.64361960E-02
 -1.93262373E-03 -5.04625581E-04  2.88908087E-08  2.44446784E-08 -5.07481447E-02
  1.12865090E-01  6.80109302E-02  9.40864235E-02  2.60319785E-06  1.79401509E-01
  3.76942134E-02  5.14930477E-02  1.49175799E-06 -9.94750393E-03 -3.69013362E-03
  1.87237508E-03 -1.11669158E-02 -3.91106402E-07 -2.38841400E-07  4.16675621E-02
 -7.14295174E-02  1.54423145E-01  7.76338287E-02 -5.87786458E-07 -1.22278032E-01
  4.23615532E-02  1.59250125E-02  1.30343961E-07  1.03901437E-02 -5.88421540E-03
 -9.02069220E-03  1.29061569E-02 -2.85284022E-07  1.08874395E-07 -1.25403258E-01
  2.83909366E-01  2.61860408E-02 -3.94103243E-02  2.46056518E-07  2.10530705E-01
 -3.42218584E-02 -3.03130820E-02  4.31360819E-07  3.81009120E-03  8.35640813E-04
 -1.17542929E-02 -2.89824862E-03 -7.74592828E-08  6.74648900E-08 -6.94777757E-02
 -5.18043470E-02 -6.58229755E-02 -3.84146783E-02 -6.58216999E-02 -3.84145581E-02
  3.60241547E-02 -8.20610746E-02 -1.40641679E-01  2.76890671E-01  3.72788178E-06
 -1.39883383E-01 -8.56434038E-02  1.68867991E-01  2.48082798E-06 -5.39223083E-03
  1.53422253E-02 -3.50327790E-03 -1.07858925E-02 -2.53962548E-07  3.22910534E-07
 -3.01873612E-02  7.08599782E-02  2.50267647E-01  1.35636659E-01 -1.34973884E-08