74201                                                                   
Freq      RMP2-FC                                                     6-31G(d)            
Number of atoms                            I               15
Info1-9                                    I   N=           9
          27          25        1002           0           0         100
           6           2           1
Charge                                     I                0
Multiplicity                               I                1
Number of electrons                        I               58
Number of alpha electrons                  I               29
Number of beta electrons                   I               29
Number of basis functions                  I              134
Number of independent functions            I              134
Number of point charges in /Mol/           I                0
Number of translation vectors              I                0
Atomic numbers                             I   N=          15
           8           7           6           6           6           6
           6           6           1           1           1           1
           1           1           1
Nuclear charges                            R   N=          15
  8.00000000E+00  7.00000000E+00  6.00000000E+00  6.00000000E+00  6.00000000E+00
  6.00000000E+00  6.00000000E+00  6.00000000E+00  1.00000000E+00  1.00000000E+00
  1.00000000E+00  1.00000000E+00  1.00000000E+00  1.00000000E+00  1.00000000E+00
Current cartesian coordinates              R   N=          45
  3.25102149E+00 -1.31401945E+00 -2.05266431E-06  2.63288200E-01  1.90359607E+00
  5.10487051E-06  7.98419628E-01 -5.54928760E-01 -7.53884653E-07 -1.03135439E+00
 -2.48010797E+00 -4.90192715E-06 -3.55112224E+00 -1.76864289E+00 -2.95523293E-06
 -4.16601411E+00  8.07526763E-01  3.01764893E-06 -2.20670375E+00  2.55135998E+00
  6.72491690E-06  5.09248840E+00  6.76307888E-01 -2.82175727E-06 -4.38027286E-01
 -4.44323255E+00 -9.73520044E-06 -5.02686510E+00 -3.19814518E+00 -6.13525152E-06
 -6.11816556E+00  1.43823938E+00  4.57402998E-06 -2.58812414E+00  4.57248932E+00
  1.13036898E-05  4.89845578E+00  1.86070583E+00  1.67862507E+00  4.89844473E+00
  1.86071480E+00 -1.67862302E+00  6.90881098E+00 -2.92878628E-01 -1.12327591E-05
Force Field                                I                0
Int Atom Types                             I   N=          15
           0           0           0           0           0           0
           0           0           0           0           0           0
           0           0           0
MM charges                                 R   N=          15
  0.00000000E+00  0.00000000E+00  0.00000000E+00  0.00000000E+00  0.00000000E+00
  0.00000000E+00  0.00000000E+00  0.00000000E+00  0.00000000E+00  0.00000000E+00
  0.00000000E+00  0.00000000E+00  0.00000000E+00  0.00000000E+00  0.00000000E+00
Integer atomic weights                     I   N=          15
          16          14          12          12          12          12
          12          12           1           1           1           1
           1           1           1
Real atomic weights                        R   N=          15
  1.59949146E+01  1.40030740E+01  1.20000000E+01  1.20000000E+01  1.20000000E+01
  1.20000000E+01  1.20000000E+01  1.20000000E+01  1.00782504E+00  1.00782504E+00
  1.00782504E+00  1.00782504E+00  1.00782504E+00  1.00782504E+00  1.00782504E+00
Atom fragment info                         I   N=          15
           0           0           0           0           0           0
           0           0           0           0           0           0
           0           0           0
Atom residue num                           I   N=          15
           0           0           0           0           0           0
           0           0           0           0           0           0
           0           0           0
Nuclear spins                              I   N=          15
           0           2           0           0           0           0
           0           0           1           1           1           1
           1           1           1
Nuclear ZEff                               R   N=          15
 -5.60000000E+00 -4.55000000E+00 -3.60000000E+00 -3.60000000E+00 -3.60000000E+00
 -3.60000000E+00 -3.60000000E+00 -3.60000000E+00 -1.00000000E+00 -1.00000000E+00
 -1.00000000E+00 -1.00000000E+00 -1.00000000E+00 -1.00000000E+00 -1.00000000E+00
Nuclear QMom                               R   N=          15
  0.00000000E+00  2.04400000E+00  0.00000000E+00  0.00000000E+00  0.00000000E+00
  0.00000000E+00  0.00000000E+00  0.00000000E+00  0.00000000E+00  0.00000000E+00
  0.00000000E+00  0.00000000E+00  0.00000000E+00  0.00000000E+00  0.00000000E+00
Nuclear GFac                               R   N=          15
  0.00000000E+00  4.03761000E-01  0.00000000E+00  0.00000000E+00  0.00000000E+00
  0.00000000E+00  0.00000000E+00  0.00000000E+00  2.79284600E+00  2.79284600E+00
  2.79284600E+00  2.79284600E+00  2.79284600E+00  2.79284600E+00  2.79284600E+00
MicOpt                                     I   N=          15
          -1          -1          -1          -1          -1          -1
          -1          -1          -1          -1          -1          -1
          -1          -1          -1
Number of contracted shells                I               46
Number of primitive shells                 I              116
Pure/Cartesian d shells                    I                1
Pure/Cartesian f shells                    I                0
Highest angular momentum                   I                2
Largest degree of contraction              I                6
Shell types                                I   N=          46
           0          -1          -1           2           0          -1
          -1           2           0          -1          -1           2
           0          -1          -1           2           0          -1
          -1           2           0          -1          -1           2
           0          -1          -1           2           0          -1
          -1           2           0           0           0           0
           0           0           0           0           0           0
           0           0           0           0
Number of primitives per shell             I   N=          46
           6           3           1           1           6           3
           1           1           6           3           1           1
           6           3           1           1           6           3
           1           1           6           3           1           1
           6           3           1           1           6           3
           1           1           3           1           3           1
           3           1           3           1           3           1
           3           1           3           1
Shell to atom map                          I   N=          46
           1           1           1           1           2           2
           2           2           3           3           3           3
           4           4           4           4           5           5
           5           5           6           6           6           6
           7           7           7           7           8           8
           8           8           9           9          10          10
          11          11          12          12          13          13
          14          14          15          15
Primitive exponents                        R   N=         116
  5.48467166E+03  8.25234946E+02  1.88046958E+02  5.29645000E+01  1.68975704E+01
  5.79963534E+00  1.55396162E+01  3.59993359E+00  1.01376175E+00  2.70005823E-01
  8.00000000E-01  4.17351146E+03  6.27457911E+02  1.42902093E+02  4.02343293E+01
  1.28202129E+01  4.39043701E+00  1.16263619E+01  2.71627981E+00  7.72218397E-01
  2.12031498E-01  8.00000000E-01  3.04752488E+03  4.57369518E+02  1.03948685E+02
  2.92101553E+01  9.28666296E+00  3.16392696E+00  7.86827235E+00  1.88128854E+00
  5.44249258E-01  1.68714478E-01  8.00000000E-01  3.04752488E+03  4.57369518E+02
  1.03948685E+02  2.92101553E+01  9.28666296E+00  3.16392696E+00  7.86827235E+00
  1.88128854E+00  5.44249258E-01  1.68714478E-01  8.00000000E-01  3.04752488E+03
  4.57369518E+02  1.03948685E+02  2.92101553E+01  9.28666296E+00  3.16392696E+00
  7.86827235E+00  1.88128854E+00  5.44249258E-01  1.68714478E-01  8.00000000E-01
  3.04752488E+03  4.57369518E+02  1.03948685E+02  2.92101553E+01  9.28666296E+00
  3.16392696E+00  7.86827235E+00  1.88128854E+00  5.44249258E-01  1.68714478E-01
  8.00000000E-01  3.04752488E+03  4.57369518E+02  1.03948685E+02  2.92101553E+01
  9.28666296E+00  3.16392696E+00  7.86827235E+00  1.88128854E+00  5.44249258E-01
  1.68714478E-01  8.00000000E-01  3.04752488E+03  4.57369518E+02  1.03948685E+02
  2.92101553E+01  9.28666296E+00  3.16392696E+00  7.86827235E+00  1.88128854E+00
  5.44249258E-01  1.68714478E-01  8.00000000E-01  1.87311370E+01  2.82539436E+00
  6.40121692E-01  1.61277759E-01  1.87311370E+01  2.82539436E+00  6.40121692E-01
  1.61277759E-01  1.87311370E+01  2.82539436E+00  6.40121692E-01  1.61277759E-01
  1.87311370E+01  2.82539436E+00  6.40121692E-01  1.61277759E-01  1.87311370E+01
  2.82539436E+00  6.40121692E-01  1.61277759E-01  1.87311370E+01  2.82539436E+00
  6.40121692E-01  1.61277759E-01  1.87311370E+01  2.82539436E+00  6.40121692E-01
  1.61277759E-01
Contraction coefficients                   R   N=         116
  1.83107443E-03  1.39501722E-02  6.84450781E-02  2.32714336E-01  4.70192898E-01
  3.58520853E-01 -1.10777550E-01 -1.48026263E-01  1.13076702E+00  1.00000000E+00
  1.00000000E+00  1.83477216E-03  1.39946270E-02  6.85865518E-02  2.32240873E-01
  4.69069948E-01  3.60455199E-01 -1.14961182E-01 -1.69117479E-01  1.14585195E+00
  1.00000000E+00  1.00000000E+00  1.83473713E-03  1.40373228E-02  6.88426223E-02
  2.32184443E-01  4.67941348E-01  3.62311985E-01 -1.19332420E-01 -1.60854152E-01
  1.14345644E+00  1.00000000E+00  1.00000000E+00  1.83473713E-03  1.40373228E-02
  6.88426223E-02  2.32184443E-01  4.67941348E-01  3.62311985E-01 -1.19332420E-01
 -1.60854152E-01  1.14345644E+00  1.00000000E+00  1.00000000E+00  1.83473713E-03
  1.40373228E-02  6.88426223E-02  2.32184443E-01  4.67941348E-01  3.62311985E-01
 -1.19332420E-01 -1.60854152E-01  1.14345644E+00  1.00000000E+00  1.00000000E+00
  1.83473713E-03  1.40373228E-02  6.88426223E-02  2.32184443E-01  4.67941348E-01
  3.62311985E-01 -1.19332420E-01 -1.60854152E-01  1.14345644E+00  1.00000000E+00
  1.00000000E+00  1.83473713E-03  1.40373228E-02  6.88426223E-02  2.32184443E-01
  4.67941348E-01  3.62311985E-01 -1.19332420E-01 -1.60854152E-01  1.14345644E+00
  1.00000000E+00  1.00000000E+00  1.83473713E-03  1.40373228E-02  6.88426223E-02
  2.32184443E-01  4.67941348E-01  3.62311985E-01 -1.19332420E-01 -1.60854152E-01
  1.14345644E+00  1.00000000E+00  1.00000000E+00  3.34946043E-02  2.34726953E-01
  8.13757326E-01  1.00000000E+00  3.34946043E-02  2.34726953E-01  8.13757326E-01
  1.00000000E+00  3.34946043E-02  2.34726953E-01  8.13757326E-01  1.00000000E+00
  3.34946043E-02  2.34726953E-01  8.13757326E-01  1.00000000E+00  3.34946043E-02
  2.34726953E-01  8.13757326E-01  1.00000000E+00  3.34946043E-02  2.34726953E-01
  8.13757326E-01  1.00000000E+00  3.34946043E-02  2.34726953E-01  8.13757326E-01
  1.00000000E+00
P(S=P) Contraction coefficients            R   N=         116
  0.00000000E+00  0.00000000E+00  0.00000000E+00  0.00000000E+00  0.00000000E+00
  0.00000000E+00  7.08742682E-02  3.39752839E-01  7.27158577E-01  1.00000000E+00
  0.00000000E+00  0.00000000E+00  0.00000000E+00  0.00000000E+00  0.00000000E+00
  0.00000000E+00  0.00000000E+00  6.75797439E-02  3.23907296E-01  7.40895140E-01
  1.00000000E+00  0.00000000E+00  0.00000000E+00  0.00000000E+00  0.00000000E+00
  0.00000000E+00  0.00000000E+00  0.00000000E+00  6.89990666E-02  3.16423961E-01
  7.44308291E-01  1.00000000E+00  0.00000000E+00  0.00000000E+00  0.00000000E+00
  0.00000000E+00  0.00000000E+00  0.00000000E+00  0.00000000E+00  6.89990666E-02
  3.16423961E-01  7.44308291E-01  1.00000000E+00  0.00000000E+00  0.00000000E+00
  0.00000000E+00  0.00000000E+00  0.00000000E+00  0.00000000E+00  0.00000000E+00
  6.89990666E-02  3.16423961E-01  7.44308291E-01  1.00000000E+00  0.00000000E+00
  0.00000000E+00  0.00000000E+00  0.00000000E+00  0.00000000E+00  0.00000000E+00
  0.00000000E+00  6.89990666E-02  3.16423961E-01  7.44308291E-01  1.00000000E+00
  0.00000000E+00  0.00000000E+00  0.00000000E+00  0.00000000E+00  0.00000000E+00
  0.00000000E+00  0.00000000E+00  6.89990666E-02  3.16423961E-01  7.44308291E-01
  1.00000000E+00  0.00000000E+00  0.00000000E+00  0.00000000E+00  0.00000000E+00
  0.00000000E+00  0.00000000E+00  0.00000000E+00  6.89990666E-02  3.16423961E-01
  7.44308291E-01  1.00000000E+00  0.00000000E+00  0.00000000E+00  0.00000000E+00
  0.00000000E+00  0.00000000E+00  0.00000000E+00  0.00000000E+00  0.00000000E+00
  0.00000000E+00  0.00000000E+00  0.00000000E+00  0.00000000E+00  0.00000000E+00
  0.00000000E+00  0.00000000E+00  0.00000000E+00  0.00000000E+00  0.00000000E+00
  0.00000000E+00  0.00000000E+00  0.00000000E+00  0.00000000E+00  0.00000000E+00
  0.00000000E+00  0.00000000E+00  0.00000000E+00  0.00000000E+00  0.00000000E+00
  0.00000000E+00
Coordinates of each shell                  R   N=         138
  3.25102149E+00 -1.31401945E+00 -2.05266431E-06  3.25102149E+00 -1.31401945E+00
 -2.05266431E-06  3.25102149E+00 -1.31401945E+00 -2.05266431E-06  3.25102149E+00
 -1.31401945E+00 -2.05266431E-06  2.63288200E-01  1.90359607E+00  5.10487051E-06
  2.63288200E-01  1.90359607E+00  5.10487051E-06  2.63288200E-01  1.90359607E+00
  5.10487051E-06  2.63288200E-01  1.90359607E+00  5.10487051E-06  7.98419628E-01
 -5.54928760E-01 -7.53884653E-07  7.98419628E-01 -5.54928760E-01 -7.53884653E-07
  7.98419628E-01 -5.54928760E-01 -7.53884653E-07  7.98419628E-01 -5.54928760E-01
 -7.53884653E-07 -1.03135439E+00 -2.48010797E+00 -4.90192715E-06 -1.03135439E+00
 -2.48010797E+00 -4.90192715E-06 -1.03135439E+00 -2.48010797E+00 -4.90192715E-06
 -1.03135439E+00 -2.48010797E+00 -4.90192715E-06 -3.55112224E+00 -1.76864289E+00
 -2.95523293E-06 -3.55112224E+00 -1.76864289E+00 -2.95523293E-06 -3.55112224E+00
 -1.76864289E+00 -2.95523293E-06 -3.55112224E+00 -1.76864289E+00 -2.95523293E-06
 -4.16601411E+00  8.07526763E-01  3.01764893E-06 -4.16601411E+00  8.07526763E-01
  3.01764893E-06 -4.16601411E+00  8.07526763E-01  3.01764893E-06 -4.16601411E+00
  8.07526763E-01  3.01764893E-06 -2.20670375E+00  2.55135998E+00  6.72491690E-06
 -2.20670375E+00  2.55135998E+00  6.72491690E-06 -2.20670375E+00  2.55135998E+00
  6.72491690E-06 -2.20670375E+00  2.55135998E+00  6.72491690E-06  5.09248840E+00
  6.76307888E-01 -2.82175727E-06  5.09248840E+00  6.76307888E-01 -2.82175727E-06
  5.09248840E+00  6.76307888E-01 -2.82175727E-06  5.09248840E+00  6.76307888E-01
 -2.82175727E-06 -4.38027286E-01 -4.44323255E+00 -9.73520044E-06 -4.38027286E-01
 -4.44323255E+00 -9.73520044E-06 -5.02686510E+00 -3.19814518E+00 -6.13525152E-06
 -5.02686510E+00 -3.19814518E+00 -6.13525152E-06 -6.11816556E+00  1.43823938E+00
  4.57402998E-06 -6.11816556E+00  1.43823938E+00  4.57402998E-06 -2.58812414E+00
  4.57248932E+00  1.13036898E-05 -2.58812414E+00  4.57248932E+00  1.13036898E-05
  4.89845578E+00  1.86070583E+00  1.67862507E+00  4.89845578E+00  1.86070583E+00
  1.67862507E+00  4.89844473E+00  1.86071480E+00 -1.67862302E+00  4.89844473E+00
  1.86071480E+00 -1.67862302E+00  6.90881098E+00 -2.92878628E-01 -1.12327591E-05
  6.90881098E+00 -2.92878628E-01 -1.12327591E-05
Constraint Structure                       R   N=          45
  3.25102149E+00 -1.31401945E+00 -2.05266431E-06  2.63288200E-01  1.90359607E+00
  5.10487051E-06  7.98419628E-01 -5.54928760E-01 -7.53884653E-07 -1.03135439E+00
 -2.48010797E+00 -4.90192715E-06 -3.55112224E+00 -1.76864289E+00 -2.95523293E-06
 -4.16601411E+00  8.07526763E-01  3.01764893E-06 -2.20670375E+00  2.55135998E+00
  6.72491690E-06  5.09248840E+00  6.76307888E-01 -2.82175727E-06 -4.38027286E-01
 -4.44323255E+00 -9.73520044E-06 -5.02686510E+00 -3.19814518E+00 -6.13525152E-06
 -6.11816556E+00  1.43823938E+00  4.57402998E-06 -2.58812414E+00  4.57248932E+00
  1.13036898E-05  4.89845578E+00  1.86070583E+00  1.67862507E+00  4.89844473E+00
  1.86071480E+00 -1.67862302E+00  6.90881098E+00 -2.92878628E-01 -1.12327591E-05
Num ILSW                                   I              100
ILSW                                       I   N=         100
           0           1           0           0           2           0
           0           0           0           0           0          -1
           0           0           0           0           0           0
           0           0           0           0           1           0
           1           0           0           0           0           0
           0           0      100000           0          -1           0
           0           0           0           0           0           0
           0           0           0           1           1           0
           0           0           1           0           0           0
           0           0           4          40           0           0
           0           0           0           0           0           0
           0           0           0           0           0           0
           0           0           0           0           0           0
           0           0           0           0           0           0
           0           0           0           0           0           0
           0           0           0           0           0           0
           0           0           0           0
Num RLSW                                   I               40
RLSW                                       R   N=          40
  1.00000000E+00  1.00000000E+00  1.00000000E+00  1.00000000E+00  1.00000000E+00
  0.00000000E+00  0.00000000E+00  1.00000000E+00  0.00000000E+00  0.00000000E+00
  0.00000000E+00  0.00000000E+00  1.00000000E+00  0.00000000E+00  0.00000000E+00
  0.00000000E+00  0.00000000E+00  1.00000000E+00  0.00000000E+00  0.00000000E+00
  0.00000000E+00  0.00000000E+00  1.00000000E+00  0.00000000E+00  0.00000000E+00
  0.00000000E+00  0.00000000E+00  1.00000000E+00  0.00000000E+00  0.00000000E+00
  0.00000000E+00  0.00000000E+00  0.00000000E+00  0.00000000E+00  0.00000000E+00
  0.00000000E+00  0.00000000E+00  0.00000000E+00  1.00000000E+00  1.00000000E+00
MxBond                                     I                4
NBond                                      I   N=          15
           2           2           3           3           3           3
           3           4           1           1           1           1
           1           1           1
IBond                                      I   N=          60
           3           8           0           0           3           7
           0           0           1           2           4           0
           3           5           9           0           4           6
          10           0           5           7          11           0
           2           6          12           0           1          13
          14          15           4           0           0           0
           5           0           0           0           6           0
           0           0           7           0           0           0
           8           0           0           0           8           0
           0           0           8           0           0           0
RBond                                      R   N=          60
  1.50000000E+00  1.00000000E+00  0.00000000E+00  0.00000000E+00  1.50000000E+00
  1.50000000E+00  0.00000000E+00  0.00000000E+00  1.50000000E+00  1.50000000E+00
  1.50000000E+00  0.00000000E+00  1.50000000E+00  1.50000000E+00  1.00000000E+00
  0.00000000E+00  1.50000000E+00  1.50000000E+00  1.00000000E+00  0.00000000E+00
  1.50000000E+00  1.50000000E+00  1.00000000E+00  0.00000000E+00  1.50000000E+00
  1.50000000E+00  1.00000000E+00  0.00000000E+00  1.00000000E+00  1.00000000E+00
  1.00000000E+00  1.00000000E+00  1.00000000E+00  0.00000000E+00  0.00000000E+00
  0.00000000E+00  1.00000000E+00  0.00000000E+00  0.00000000E+00  0.00000000E+00
  1.00000000E+00  0.00000000E+00  0.00000000E+00  0.00000000E+00  1.00000000E+00
  0.00000000E+00  0.00000000E+00  0.00000000E+00  1.00000000E+00  0.00000000E+00
  0.00000000E+00  0.00000000E+00  1.00000000E+00  0.00000000E+00  0.00000000E+00
  0.00000000E+00  1.00000000E+00  0.00000000E+00  0.00000000E+00  0.00000000E+00
Virial Ratio                               R      2.002531169448861E+00
SCF Energy                                 R     -3.605874608728757E+02
MP2 Energy                                 R     -3.616834472835980E+02
Total Energy                               R     -3.616834472835980E+02
Post-SCF wavefunction norm                 R      1.657195704652973E+00
RMS Force                                  R      3.869915966705713E-06
RMS Density                                R      1.364839233598018E-09
External E-field                           R   N=          35
  0.00000000E+00  0.00000000E+00  0.00000000E+00  0.00000000E+00  0.00000000E+00
  0.00000000E+00  0.00000000E+00  0.00000000E+00  0.00000000E+00  0.00000000E+00
  0.00000000E+00  0.00000000E+00  0.00000000E+00  0.00000000E+00  0.00000000E+00
  0.00000000E+00  0.00000000E+00  0.00000000E+00  0.00000000E+00  0.00000000E+00
  0.00000000E+00  0.00000000E+00  0.00000000E+00  0.00000000E+00  0.00000000E+00
  0.00000000E+00  0.00000000E+00  0.00000000E+00  0.00000000E+00  0.00000000E+00
  0.00000000E+00  0.00000000E+00  0.00000000E+00  0.00000000E+00  0.00000000E+00
IOpCl                                      I                0
IROHF                                      I                0
Alpha Orbital Energies                     R   N=         134
 -2.05900035E+01 -1.55623833E+01 -1.13361502E+01 -1.12795217E+01 -1.12738770E+01
 -1.12615769E+01 -1.12354273E+01 -1.12333666E+01 -1.41211839E+00 -1.24424903E+00
 -1.08531874E+00 -1.02746097E+00 -9.41946411E-01 -8.59358162E-01 -8.25892747E-01
 -7.22523418E-01 -6.80311445E-01 -6.63801705E-01 -6.47907966E-01 -6.16336055E-01
 -5.93954911E-01 -5.57533485E-01 -5.41431537E-01 -5.35161501E-01 -5.07419891E-01
 -4.72649125E-01 -4.21163630E-01 -3.80694268E-01 -3.19845354E-01  1.23526940E-01
  1.54958412E-01  2.42062004E-01  2.71572798E-01  2.91809878E-01  3.14215170E-01
  3.18461341E-01  3.21696556E-01  3.31098739E-01  3.37326214E-01  3.63647189E-01
  4.17411855E-01  4.70010582E-01  4.87882258E-01  5.20401414E-01  5.31656144E-01
  6.44177438E-01  6.96784953E-01  7.21571036E-01  7.35814555E-01  7.65190730E-01
  7.78617934E-01  7.86740732E-01  8.17479991E-01  8.19253358E-01  8.32427806E-01
  8.35452740E-01  8.44998328E-01  8.82557026E-01  9.14070201E-01  9.16395089E-01
  9.40350713E-01  9.55443059E-01  1.08834499E+00  1.09790113E+00  1.10577297E+00
  1.11032214E+00  1.11453319E+00  1.14044382E+00  1.15597385E+00  1.16811856E+00
  1.18542219E+00  1.18549125E+00  1.20620234E+00  1.23613700E+00  1.28172212E+00
  1.31836970E+00  1.33349697E+00  1.33955183E+00  1.40090978E+00  1.47222882E+00
  1.49802002E+00  1.58186546E+00  1.62493208E+00  1.64137696E+00  1.68147588E+00
  1.71395869E+00  1.72838165E+00  1.73252593E+00  1.75879321E+00  1.79410441E+00
  1.81284262E+00  1.93937447E+00  1.97348142E+00  2.08448983E+00  2.10151407E+00
  2.13808799E+00  2.17799530E+00  2.23622459E+00  2.28685116E+00  2.29036617E+00
  2.34445992E+00  2.39281289E+00  2.43753712E+00  2.43939422E+00  2.49015150E+00
  2.49189263E+00  2.51779723E+00  2.54296743E+00  2.58595051E+00  2.63237682E+00
  2.64747400E+00  2.69711905E+00  2.69923997E+00  2.84812372E+00  2.89985815E+00
  2.94002690E+00  2.97595519E+00  2.99293310E+00  3.04734000E+00  3.04737018E+00
  3.09318020E+00  3.16032435E+00  3.29415630E+00  3.33951776E+00  3.57292661E+00
  3.78862637E+00  4.44053252E+00  4.48988455E+00  4.60144203E+00  4.60674962E+00
  4.67871894E+00  4.76047588E+00  4.87683050E+00  5.05933069E+00
Alpha MO coefficients                      R   N=       17956
  9.94647409E-01  2.12381392E-02 -4.23186670E-04  1.20603224E-03  5.29252777E-10
  3.86512869E-03  6.95521994E-05 -8.08298480E-04 -5.46098416E-10 -4.16386928E-03
 -4.10661683E-03 -3.88322738E-03 -6.74038838E-05  1.95589817E-10  7.42835019E-11
  3.01419258E-06  3.13498324E-05 -1.73179695E-05  3.03024339E-05  5.92655054E-11
 -3.47341462E-04 -2.66823296E-04  2.14848722E-04  6.70347964E-10 -2.23056091E-05
 -3.64564103E-05 -7.64340895E-06  7.34357861E-05  1.68563621E-10 -1.17416805E-10
  6.52427578E-07  3.85705160E-04  3.18331167E-04 -1.04477713E-04 -1.37714004E-10
 -1.48549693E-04  2.22145785E-04  7.54213945E-04  1.17082918E-09 -6.66308957E-05
  3.44152820E-05 -5.60042065E-05  2.57807902E-05  2.06074785E-11  2.52973504E-10
 -8.96780005E-06 -2.43836126E-06  1.12434438E-05 -2.76449985E-06  1.20974237E-11
  1.00007011E-03 -2.45029936E-04  3.27753849E-04  8.62942296E-10 -6.86411151E-05
 -1.32434936E-05 -2.62958471E-05 -3.56636178E-05 -8.05362187E-11  5.96606273E-11
  9.21883376E-06  4.99187265E-05 -2.69697379E-06 -1.53308287E-06 -1.74755050E-11
 -7.02671464E-04 -3.69310956E-04 -1.11901851E-04 -1.97468686E-10 -3.54200096E-06
  1.25057615E-05  1.71420658E-05 -1.24063740E-05 -2.48594376E-11 -4.07528801E-12
 -3.79193944E-06 -1.54173680E-05 -7.23336306E-06 -7.21205832E-06 -2.54078156E-11
  2.80504116E-04  2.37642473E-04 -6.06676071E-05 -1.48773600E-10 -2.17286116E-06
 -8.93981318E-06 -5.54223695E-06 -3.94856664E-06 -8.02563008E-12 -7.12001318E-12
  1.28655727E-06  1.01779660E-05  1.43177809E-05  2.99322008E-06 -7.70642725E-12
 -3.29701409E-04 -7.97481528E-05  1.22628017E-04  2.79409029E-10  1.92092623E-05
 -9.53319636E-06  3.20954195E-06  4.58470166E-06  4.32418442E-12 -3.96448574E-11
 -1.21186530E-05  2.16573113E-04 -2.76723519E-04 -3.11798124E-04  1.21746290E-10
  1.00352473E-04 -1.98134867E-05  2.47790919E-04  9.17836984E-11  5.28622438E-05
  3.24197919E-05 -2.28443395E-05  1.13732543E-04  5.87279975E-11 -2.02788087E-10
  3.57688404E-05 -8.41480481E-06  4.52879795E-07 -7.33333342E-05  1.27143540E-05
  6.68538850E-05  3.18558065E-06 -2.86820974E-05 -3.93165487E-05 -1.25049462E-04
 -3.93167222E-05 -1.25050000E-04  1.10802731E-05 -4.03265655E-05 -3.95602943E-05
 -2.18367356E-04  6.36219448E-05 -1.83355175E-06 -1.40412582E-11  1.37114961E-03
 -5.41051457E-04 -2.09196236E-04 -5.11737700E-10 -5.16939614E-05 -1.57138119E-04
 -1.48270332E-04  6.19691763E-05  2.94897338E-10  2.14936686E-11  9.95231423E-01
  2.51698038E-02 -1.35814555E-03 -1.43136541E-03 -3.53255463E-09 -7.67763461E-03
  2.06457139E-03  2.66269675E-03  6.21295351E-09 -2.77450799E-03 -2.71233211E-03
 -3.08658548E-03 -1.17839791E-04 -3.20400764E-10  9.47287680E-10  2.20842999E-05
  3.35691513E-04 -8.33209775E-05  3.13308470E-05  7.91217152E-11  3.60821248E-03
 -2.19992228E-03  2.86389921E-03  6.71482149E-09 -1.18354415E-04 -5.35027013E-04
 -6.82690460E-05  1.07187882E-04  1.85659377E-10 -1.25273456E-09  2.65789651E-05
  9.18090708E-05 -1.71104796E-05 -2.39512445E-05 -4.27461071E-11 -2.06617193E-03
  1.59833248E-03 -1.73546060E-03 -4.22425439E-09  1.05057166E-04 -3.27814525E-05
  1.90575162E-05  2.01556877E-05  2.12420678E-11 -1.04275699E-10 -2.49604238E-05
 -1.11724990E-04 -1.16243713E-05  8.00569290E-06 -5.22284034E-12  3.20466717E-03
  1.36583038E-03  7.94812728E-04  1.73601942E-09 -2.33409097E-05 -2.24742907E-05
 -4.70640695E-05 -3.93901583E-06 -5.63018171E-12  7.29590268E-11  4.13830461E-05
  1.86988209E-04 -3.94006646E-05 -4.63199368E-05 -1.08879642E-10 -3.20124296E-03
 -2.10505398E-03  4.44942022E-04  1.24146394E-09 -2.65843985E-05  6.90811731E-05
  4.88449130E-05 -1.64304717E-05 -1.63739088E-11  4.40993518E-11  1.77197881E-05
  2.92317633E-04  1.43229455E-04 -4.16420632E-05 -1.29538460E-10  4.19181134E-03
  6.13076161E-04 -2.35971190E-03 -5.28997570E-09 -4.42715929E-04 -4.51735294E-05
 -7.33390519E-05  1.05675840E-04  2.63038848E-10  3.14467372E-11  7.13258831E-06
  4.32652142E-05 -4.30690516E-05  1.08737653E-05  2.22941030E-10  1.12031115E-04
  2.95475174E-04 -2.14376518E-04 -1.39406830E-09 -1.32212787E-05  1.56635383E-05
 -4.27160302E-06  5.12411073E-06 -9.56010779E-11  1.71709354E-11 -1.14130381E-04
 -6.09088453E-04  1.62267672E-05  3.15268830E-04 -7.04110230E-05 -5.34907307E-04
  3.10762639E-05  5.03658783E-04  4.12761556E-05 -3.79687325E-05  4.12760202E-05
 -3.79692178E-05 -3.48626800E-05 -2.12861208E-04  2.74439804E-05  1.20154867E-03
 -2.08238865E-04  1.58475510E-04  1.12321012E-10 -4.78883031E-03  2.30345667E-03
 -1.59024341E-03 -1.90303316E-09 -3.95272842E-04  3.89206386E-04  8.56187553E-04
  3.87994274E-04  7.94148097E-10 -5.46713994E-10 -2.94249702E-04  3.55345886E-04
  1.27902197E-04 -7.73796193E-05 -2.14239535E-10 -1.23063723E-03 -1.43732125E-03
  1.91984367E-03  4.82815454E-09 -2.01720332E-04 -4.18872091E-04  2.06965671E-04
  2.51029530E-04  6.82016301E-10 -1.76892932E-09  9.95810583E-01  2.65170090E-02
  9.53593257E-04  1.93198429E-04  6.91834939E-10 -6.47380490E-03  4.83996564E-03
  2.43729955E-03  5.58551286E-09 -8.12885021E-04 -8.61870621E-04 -2.26187475E-03
 -2.11601258E-04 -3.86588845E-10  3.67478348E-09  5.25914141E-03  2.01191918E-05
 -6.67541652E-05 -9.22553931E-05 -1.43622044E-10  4.50874868E-03  1.93295336E-03
  1.85752322E-03  3.72232095E-09 -4.78241119E-04 -2.43182043E-04 -1.30591168E-04
 -7.79350500E-05 -1.25781511E-10 -3.01571793E-10 -5.56227508E-06 -2.79474015E-04
 -6.10928195E-05  1.83485980E-05  4.58600643E-11  1.05143989E-03  1.09926614E-03
  2.13180994E-04  4.13742974E-10  1.64887188E-04  3.92375061E-05 -7.76307118E-05
 -2.48348829E-06 -3.20090384E-11  2.95175668E-10 -8.76881820E-05  8.25133773E-05
 -8.39064639E-05 -3.65175743E-05 -7.24955361E-11 -2.64880701E-03 -1.66593230E-03