
    -----------------------------------------------------------------------
          Psi4: An Open-Source Ab Initio Electronic Structure Package
                               Psi4 1.3.2 release

                         Git: Rev {HEAD} ecbda83 


    R. M. Parrish, L. A. Burns, D. G. A. Smith, A. C. Simmonett,
    A. E. DePrince III, E. G. Hohenstein, U. Bozkaya, A. Yu. Sokolov,
    R. Di Remigio, R. M. Richard, J. F. Gonthier, A. M. James,
    H. R. McAlexander, A. Kumar, M. Saitow, X. Wang, B. P. Pritchard,
    P. Verma, H. F. Schaefer III, K. Patkowski, R. A. King, E. F. Valeev,
    F. A. Evangelista, J. M. Turney, T. D. Crawford, and C. D. Sherrill,
    J. Chem. Theory Comput. 13(7) pp 3185--3197 (2017).
    (doi: 10.1021/acs.jctc.7b00174)


                         Additional Contributions by
    P. Kraus, H. Kruse, M. H. Lechner, M. C. Schieber, R. A. Shaw,
    A. Alenaizan, R. Galvelis, Z. L. Glick, S. Lehtola, and J. P. Misiewicz

    -----------------------------------------------------------------------


    Psi4 started on: Thursday, 25 February 2021 07:10PM

    Process ID: 96824
    Host:       node142.bme.utexas.edu
    PSIDATADIR: /home/xy3866/psi4conda/share/psi4
    Memory:     500.0 MiB
    Threads:    8
    
  ==> Input File <==

--------------------------------------------------------------------------
#psi4
#
memory 32 gb

molecule  {
1 1
  N       -3.3283680     0.1942120    -0.0000200
  N       -0.5495980    -0.2948890     0.0000300
  C       -2.6173460    -0.2537290    -1.2573450
  C       -2.6173490    -0.2534950     1.2573910
  C       -1.1824450     0.2377860    -1.2003860
  C       -1.1824500     0.2380150     1.2003390
  C        0.8881070    -0.1264310     0.0000120
  C        1.4779170     1.1432740    -0.0000950
  C        1.6780490    -1.2778510     0.0001130
  C        2.8695240     1.2540050    -0.0001090
  C        3.0687920    -1.1592000     0.0000980
  C        3.6642520     0.1047860    -0.0000090
  H       -3.3963489     1.4224323    -0.0001323
  H       -4.2988450    -0.1479970     0.0000100
  H       -3.1713790     0.1478040    -2.1095990
  H       -2.6546500    -1.3444640    -1.2649060
  H       -2.6546490    -1.3442280     1.2651520
  H       -3.1713850     0.1481950     2.1095680
  H       -0.6521860    -0.1397250    -2.0793070
  H       -1.1612660     1.3434560    -1.2528060
  H       -1.1612790     1.3436960     1.2525480
  H       -0.6521900    -0.1393200     2.0793360
  H        0.8654370     2.0434980    -0.0001730
  H        1.1935250    -2.2508840     0.0001950
  H        3.3333780     2.2368900    -0.0001920
  H        3.6871730    -2.0528130     0.0001780
  H        4.7470650     0.1949390    -0.0000240
units angstrom
no_reorient  #important for SAPT in psi4, default
symmetry c1  #important for SAPT in psi4, default
}

set PROPERTIES_ORIGIN ["COM"]
properties('MP2/aug-cc-pvtz', properties = ['dipole'])
--------------------------------------------------------------------------

  Memory set to  29.802 GiB by Python driver.
    SCF Algorithm Type (re)set to DF.

*** tstart() called on node142.bme.utexas.edu
*** at Thu Feb 25 19:10:17 2021

   => Loading Basis Set <=

    Name: AUG-CC-PVTZ
    Role: ORBITAL
    Keyword: BASIS
    atoms 1-2   entry N          line   281 file /home/xy3866/psi4conda/share/psi4/basis/aug-cc-pvtz.gbs 
    atoms 3-12  entry C          line   235 file /home/xy3866/psi4conda/share/psi4/basis/aug-cc-pvtz.gbs 
    atoms 13-27 entry H          line    36 file /home/xy3866/psi4conda/share/psi4/basis/aug-cc-pvtz.gbs 


         ---------------------------------------------------------
                                   SCF
               by Justin Turney, Rob Parrish, Andy Simmonett
                          and Daniel G. A. Smith
                              RHF Reference
                        8 Threads,  30517 MiB Core
         ---------------------------------------------------------

  ==> Geometry <==

    Molecular point group: c1
    Full point group: C1

    Geometry (in Angstrom), charge = 1, multiplicity = 1:

       Center              X                  Y                   Z               Mass       
    ------------   -----------------  -----------------  -----------------  -----------------
         N           -3.383798306787     0.200654676301    -0.000020579555    14.003074004430
         N           -0.605028306787    -0.288446323699     0.000029420445    14.003074004430
         C           -2.672776306787    -0.247286323699    -1.257345579555    12.000000000000
         C           -2.672779306787    -0.247052323699     1.257390420445    12.000000000000
         C           -1.237875306787     0.244228676301    -1.200386579555    12.000000000000
         C           -1.237880306787     0.244457676301     1.200338420445    12.000000000000
         C            0.832676693213    -0.119988323699     0.000011420445    12.000000000000
         C            1.422486693213     1.149716676301    -0.000095579555    12.000000000000
         C            1.622618693213    -1.271408323699     0.000112420445    12.000000000000
         C            2.814093693213     1.260447676301    -0.000109579555    12.000000000000
         C            3.013361693213    -1.152757323699     0.000097420445    12.000000000000
         C            3.608821693213     0.111228676301    -0.000009579555    12.000000000000
         H           -3.451779206787     1.428874976301    -0.000132879555     1.007825032230
         H           -4.354275306787    -0.141554323699     0.000009420445     1.007825032230
         H           -3.226809306787     0.154246676301    -2.109599579555     1.007825032230
         H           -2.710080306787    -1.338021323699    -1.264906579555     1.007825032230
         H           -2.710079306787    -1.337785323699     1.265151420445     1.007825032230
         H           -3.226815306787     0.154637676301     2.109567420445     1.007825032230
         H           -0.707616306787    -0.133282323699    -2.079307579555     1.007825032230
         H           -1.216696306787     1.349898676301    -1.252806579555     1.007825032230
         H           -1.216709306787     1.350138676301     1.252547420445     1.007825032230
         H           -0.707620306787    -0.132877323699     2.079335420445     1.007825032230
         H            0.810006693213     2.049940676301    -0.000173579555     1.007825032230
         H            1.138094693213    -2.244441323699     0.000194420445     1.007825032230
         H            3.277947693213     2.243332676301    -0.000192579555     1.007825032230
         H            3.631742693213    -2.046370323699     0.000177420445     1.007825032230
         H            4.691634693213     0.201381676301    -0.000024579555     1.007825032230

  Running in c1 symmetry.

  Rotational constants: A =      0.08433  B =      0.01663  C =      0.01652 [cm^-1]
  Rotational constants: A =   2528.07703  B =    498.43441  C =    495.15734 [MHz]
  Nuclear repulsion =  705.642771341403204

  Charge       = 1
  Multiplicity = 1
  Electrons    = 88
  Nalpha       = 44
  Nbeta        = 44

  ==> Algorithm <==

  SCF Algorithm Type is DF.
  DIIS enabled.
  MOM disabled.
  Fractional occupation disabled.
  Guess Type is SAD.
  Energy threshold   = 1.00e-10
  Density threshold  = 1.00e-10
  Integral threshold = 0.00e+00

  ==> Primary Basis <==

  Basis Set: AUG-CC-PVTZ
    Blend: AUG-CC-PVTZ
    Number of shells: 303
    Number of basis function: 897
    Number of Cartesian functions: 1035
    Spherical Harmonics?: true
    Max angular momentum: 3

   => Loading Basis Set <=

    Name: (AUG-CC-PVTZ AUX)
    Role: JKFIT
    Keyword: DF_BASIS_SCF
    atoms 1-2   entry N          line   224 file /home/xy3866/psi4conda/share/psi4/basis/aug-cc-pvtz-jkfit.gbs 
    atoms 3-12  entry C          line   162 file /home/xy3866/psi4conda/share/psi4/basis/aug-cc-pvtz-jkfit.gbs 
    atoms 13-27 entry H          line    70 file /home/xy3866/psi4conda/share/psi4/basis/aug-cc-pvtz-jkfit.gbs 

  ==> Pre-Iterations <==

   -------------------------------------------------------
    Irrep   Nso     Nmo     Nalpha   Nbeta   Ndocc  Nsocc
   -------------------------------------------------------
     A        897     897       0       0       0       0
   -------------------------------------------------------
    Total     897     897      44      44      44       0
   -------------------------------------------------------

  ==> Integral Setup <==

  DFHelper Memory: AOs need 10.838 GiB; user supplied 22.352 GiB. Using in-core AOs.

  ==> MemDFJK: Density-Fitted J/K Matrices <==

    J tasked:                   Yes
    K tasked:                   Yes
    wK tasked:                   No
    OpenMP threads:               8
    Memory [MiB]:             22888
    Algorithm:                 Disk
    Schwarz Cutoff:           1E-12
    Mask sparsity (%):       8.7633
    Fitting Condition:        1E-10

   => Auxiliary Basis Set <=

  Basis Set: (AUG-CC-PVTZ AUX)
    Blend: AUG-CC-PVTZ-JKFIT
    Number of shells: 570
    Number of basis function: 1938
    Number of Cartesian functions: 2397
    Spherical Harmonics?: true
    Max angular momentum: 4

  Minimum eigenvalue in the overlap matrix is 3.7014007019E-07.
  Using Symmetric Orthogonalization.

  SCF Guess: Superposition of Atomic Densities via on-the-fly atomic UHF.

  ==> Iterations <==

                           Total Energy        Delta E     RMS |[F,P]|

   @DF-RHF iter SAD:  -496.54873891551460   -4.96549e+02   0.00000e+00 
   @DF-RHF iter   1:  -495.87921193641790    6.69527e-01   8.08202e-04 DIIS
   @DF-RHF iter   2:  -496.17744495435943   -2.98233e-01   3.46322e-04 DIIS
   @DF-RHF iter   3:  -496.22810441876163   -5.06595e-02   8.62047e-05 DIIS
   @DF-RHF iter   4:  -496.23287987286335   -4.77545e-03   1.97340e-05 DIIS
   @DF-RHF iter   5:  -496.23309238207332   -2.12509e-04   8.52371e-06 DIIS
   @DF-RHF iter   6:  -496.23313076780511   -3.83857e-05   2.06156e-06 DIIS
   @DF-RHF iter   7:  -496.23313503993904   -4.27213e-06   8.12082e-07 DIIS
   @DF-RHF iter   8:  -496.23313562544848   -5.85509e-07   3.52928e-07 DIIS
   @DF-RHF iter   9:  -496.23313578731063   -1.61862e-07   1.41887e-07 DIIS
   @DF-RHF iter  10:  -496.23313582859629   -4.12857e-08   6.22897e-08 DIIS
   @DF-RHF iter  11:  -496.23313583782488   -9.22859e-09   3.22391e-08 DIIS
   @DF-RHF iter  12:  -496.23313583965660   -1.83172e-09   8.79072e-09 DIIS
   @DF-RHF iter  13:  -496.23313583976909   -1.12493e-10   2.71281e-09 DIIS
   @DF-RHF iter  14:  -496.23313583977142   -2.33058e-12   7.86089e-10 DIIS
   @DF-RHF iter  15:  -496.23313583977102    3.97904e-13   2.54583e-10 DIIS
   @DF-RHF iter  16:  -496.23313583977017    8.52651e-13   8.19809e-11 DIIS
  Energy and wave function converged.


  ==> Post-Iterations <==

    Orbital Energies [Eh]
    ---------------------

    Doubly Occupied:                                                      

       1A    -15.877827     2A    -15.704144     3A    -11.455239  
       4A    -11.455228     5A    -11.416295     6A    -11.416280  
       7A    -11.378695     8A    -11.343920     9A    -11.338647  
      10A    -11.338354    11A    -11.336187    12A    -11.333193  
      13A     -1.477810    14A     -1.386584    15A     -1.248792  
      16A     -1.219645    17A     -1.149175    18A     -1.119063  
      19A     -1.081623    20A     -1.051340    21A     -0.979371  
      22A     -0.933476    23A     -0.922465    24A     -0.916960  
      25A     -0.856230    26A     -0.820604    27A     -0.812760  
      28A     -0.788252    29A     -0.786254    30A     -0.767779  
      31A     -0.733748    32A     -0.732626    33A     -0.716394  
      34A     -0.699967    35A     -0.687891    36A     -0.686828  
      37A     -0.659018    38A     -0.658962    39A     -0.606852  
      40A     -0.601505    41A     -0.601203    42A     -0.519757  
      43A     -0.439827    44A     -0.437822  

    Virtual:                                                              

      45A     -0.102523    46A     -0.077979    47A     -0.065943  
      48A     -0.059331    49A     -0.044957    50A     -0.040634  
      51A     -0.039438    52A     -0.036735    53A     -0.035293  
      54A     -0.025175    55A     -0.020005    56A     -0.017031  
      57A     -0.010798    58A     -0.010639    59A     -0.000426  
      60A      0.000811    61A      0.001244    62A      0.005170  
      63A      0.005595    64A      0.012866    65A      0.013514  
      66A      0.014514    67A      0.017014    68A      0.018322  
      69A      0.023728    70A      0.029661    71A      0.036454  
      72A      0.036628    73A      0.039770    74A      0.041469  
      75A      0.047955    76A      0.049443    77A      0.051202  
      78A      0.055427    79A      0.056611    80A      0.061608  
      81A      0.063679    82A      0.070101    83A      0.070811  
      84A      0.076230    85A      0.076744    86A      0.082949  
      87A      0.087151    88A      0.089741    89A      0.092052  
      90A      0.095921    91A      0.097823    92A      0.103483  
      93A      0.107490    94A      0.108879    95A      0.118159  
      96A      0.120760    97A      0.122645    98A      0.127105  
      99A      0.131466   100A      0.136715   101A      0.143757  
     102A      0.148090   103A      0.148610   104A      0.155539  
     105A      0.162570   106A      0.166504   107A      0.167152  
     108A      0.169687   109A      0.173785   110A      0.175723  
     111A      0.183106   112A      0.185879   113A      0.187220  
     114A      0.189322   115A      0.191801   116A      0.198282  
     117A      0.200842   118A      0.208827   119A      0.212002  
     120A      0.214588   121A      0.218882   122A      0.225647  
     123A      0.226307   124A      0.227931   125A      0.230338  
     126A      0.236868   127A      0.239393   128A      0.240339  
     129A      0.247938   130A      0.249956   131A      0.250937  
     132A      0.259450   133A      0.260863   134A      0.264739  
     135A      0.268240   136A      0.269160   137A      0.270925  
     138A      0.274167   139A      0.277173   140A      0.282628  
     141A      0.288027   142A      0.290873   143A      0.295508  
     144A      0.298238   145A      0.301616   146A      0.304409  
     147A      0.311501   148A      0.315869   149A      0.320754  
     150A      0.323325   151A      0.327344   152A      0.336174  
     153A      0.336341   154A      0.338644   155A      0.341534  
     156A      0.342257   157A      0.349466   158A      0.351153  
     159A      0.357926   160A      0.362016   161A      0.364905  
     162A      0.369974   163A      0.373543   164A      0.376814  
     165A      0.377879   166A      0.380120   167A      0.384741  
     168A      0.391257   169A      0.392256   170A      0.395711  
     171A      0.400281   172A      0.400310   173A      0.402643  
     174A      0.407326   175A      0.415881   176A      0.416797  
     177A      0.420330   178A      0.424089   179A      0.426241  
     180A      0.427463   181A      0.430923   182A      0.432979  
     183A      0.437857   184A      0.440450   185A      0.447492  
     186A      0.450411   187A      0.451862   188A      0.454233  
     189A      0.456438   190A      0.463044   191A      0.463404  
     192A      0.473133   193A      0.474914   194A      0.477309  
     195A      0.481285   196A      0.484221   197A      0.487188  
     198A      0.496089   199A      0.497339   200A      0.507705  
     201A      0.509646   202A      0.510600   203A      0.514259  
     204A      0.523056   205A      0.524992   206A      0.528934  
     207A      0.536373   208A      0.546182   209A      0.549438  
     210A      0.551963   211A      0.554727   212A      0.555241  
     213A      0.566462   214A      0.566545   215A      0.575740  
     216A      0.577599   217A      0.585839   218A      0.587566  
     219A      0.598803   220A      0.602330   221A      0.618370  
     222A      0.619246   223A      0.623104   224A      0.624274  
     225A      0.624703   226A      0.628046   227A      0.640679  
     228A      0.643208   229A      0.647367   230A      0.654778  
     231A      0.656279   232A      0.659425   233A      0.663962  
     234A      0.671951   235A      0.674599   236A      0.686113  
     237A      0.692670   238A      0.694421   239A      0.700827  
     240A      0.701564   241A      0.709771   242A      0.722747  
     243A      0.730706   244A      0.732006   245A      0.735923  
     246A      0.737497   247A      0.745766   248A      0.747547  
     249A      0.752254   250A      0.758711   251A      0.767294  
     252A      0.772902   253A      0.780349   254A      0.782153  
     255A      0.785521   256A      0.787055   257A      0.789378  
     258A      0.792534   259A      0.793677   260A      0.802258  
     261A      0.805502   262A      0.809010   263A      0.812498  
     264A      0.817592   265A      0.818238   266A      0.822736  
     267A      0.823297   268A      0.833319   269A      0.838761  
     270A      0.841170   271A      0.846494   272A      0.854872  
     273A      0.855031   274A      0.862242   275A      0.873709  
     276A      0.881998   277A      0.884283   278A      0.892733  
     279A      0.894060   280A      0.902598   281A      0.905310  
     282A      0.907974   283A      0.909447   284A      0.919000  
     285A      0.923574   286A      0.924327   287A      0.931935  
     288A      0.933648   289A      0.936424   290A      0.939275  
     291A      0.944700   292A      0.947400   293A      0.956515  
     294A      0.959718   295A      0.963982   296A      0.968715  
     297A      0.970399   298A      0.975495   299A      0.977801  
     300A      0.986539   301A      0.991092   302A      0.997604  
     303A      0.998985   304A      1.005837   305A      1.014029  
     306A      1.015417   307A      1.020876   308A      1.022039  
     309A      1.023977   310A      1.026759   311A      1.033972  
     312A      1.039265   313A      1.041756   314A      1.055130  
     315A      1.055963   316A      1.062867   317A      1.064584  
     318A      1.065146   319A      1.076067   320A      1.078150  
     321A      1.084225   322A      1.086364   323A      1.090142  
     324A      1.101345   325A      1.102237   326A      1.109829  
     327A      1.111563   328A      1.115109   329A      1.120954  
     330A      1.124301   331A      1.124855   332A      1.135876  
     333A      1.139673   334A      1.145569   335A      1.147485  
     336A      1.150373   337A      1.159823   338A      1.163804  
     339A      1.170408   340A      1.180057   341A      1.181507  
     342A      1.189901   343A      1.196261   344A      1.201782  
     345A      1.202839   346A      1.213901   347A      1.217217  
     348A      1.226867   349A      1.228409   350A      1.235841  
     351A      1.245079   352A      1.245740   353A      1.251678  
     354A      1.253201   355A      1.267959   356A      1.269573  
     357A      1.276351   358A      1.280340   359A      1.288581  
     360A      1.294401   361A      1.296780   362A      1.300427  
     363A      1.301826   364A      1.309090   365A      1.319211  
     366A      1.322507   367A      1.328845   368A      1.329581  
     369A      1.342653   370A      1.343936   371A      1.358580  
     372A      1.359524   373A      1.369920   374A      1.376475  
     375A      1.379935   376A      1.391980   377A      1.396670  
     378A      1.404594   379A      1.413292   380A      1.420883  
     381A      1.421413   382A      1.428639   383A      1.432267  
     384A      1.435743   385A      1.439942   386A      1.451094  
     387A      1.468332   388A      1.471175   389A      1.478760  
     390A      1.481787   391A      1.483001   392A      1.489664  
     393A      1.493120   394A      1.503711   395A      1.505111  
     396A      1.513806   397A      1.518921   398A      1.519674  
     399A      1.523139   400A      1.534610   401A      1.536780  
     402A      1.543548   403A      1.551488   404A      1.554513  
     405A      1.568960   406A      1.569064   407A      1.589785  
     408A      1.589941   409A      1.594187   410A      1.600817  
     411A      1.607376   412A      1.613501   413A      1.616212  
     414A      1.620170   415A      1.625120   416A      1.625887  
     417A      1.642655   418A      1.644183   419A      1.658510  
     420A      1.661086   421A      1.668611   422A      1.673656  
     423A      1.679469   424A      1.685594   425A      1.692578  
     426A      1.700915   427A      1.706612   428A      1.708528  
     429A      1.714730   430A      1.716648   431A      1.717597  
     432A      1.738664   433A      1.743218   434A      1.748405  
     435A      1.750240   436A      1.755940   437A      1.764929  
     438A      1.770284   439A      1.779201   440A      1.783805  
     441A      1.794262   442A      1.804230   443A      1.806089  
     444A      1.810395   445A      1.818861   446A      1.826772  
     447A      1.828078   448A      1.832449   449A      1.846605  
     450A      1.847629   451A      1.852979   452A      1.861075  
     453A      1.866477   454A      1.867092   455A      1.879252  
     456A      1.880620   457A      1.891572   458A      1.904262  
     459A      1.911294   460A      1.915993   461A      1.916565  
     462A      1.924441   463A      1.928909   464A      1.946613  
     465A      1.951903   466A      1.956286   467A      1.958457  
     468A      1.960254   469A      1.964248   470A      1.974566  
     471A      1.981269   472A      1.984822   473A      1.999403  
     474A      2.006088   475A      2.013054   476A      2.013554  
     477A      2.018351   478A      2.026647   479A      2.037155  
     480A      2.051637   481A      2.057163   482A      2.062556  
     483A      2.068307   484A      2.075001   485A      2.079535  
     486A      2.080956   487A      2.090659   488A      2.091607  
     489A      2.116819   490A      2.117513   491A      2.125629  
     492A      2.137035   493A      2.138209   494A      2.150289  
     495A      2.160581   496A      2.164822   497A      2.174709  
     498A      2.178393   499A      2.188562   500A      2.199746  
     501A      2.202970   502A      2.205653   503A      2.220712  
     504A      2.241790   505A      2.248612   506A      2.262787  
     507A      2.263198   508A      2.265430   509A      2.285035  
     510A      2.296000   511A      2.309364   512A      2.314010  
     513A      2.325515   514A      2.329007   515A      2.332209  
     516A      2.337015   517A      2.339476   518A      2.371223  
     519A      2.376596   520A      2.390762   521A      2.392978  
     522A      2.395999   523A      2.409250   524A      2.429913  
     525A      2.433286   526A      2.443427   527A      2.456104  
     528A      2.477530   529A      2.477535   530A      2.484370  
     531A      2.491227   532A      2.502162   533A      2.512015  
     534A      2.531472   535A      2.546208   536A      2.548914  
     537A      2.560018   538A      2.567558   539A      2.576356  
     540A      2.601007   541A      2.607030   542A      2.619261  
     543A      2.620731   544A      2.623682   545A      2.642610  
     546A      2.652215   547A      2.663822   548A      2.726338  
     549A      2.730803   550A      2.736680   551A      2.749922  
     552A      2.761810   553A      2.768736   554A      2.784752  
     555A      2.792716   556A      2.806758   557A      2.822728  
     558A      2.883667   559A      2.890599   560A      2.942225  
     561A      2.943316   562A      2.983531   563A      3.011644  
     564A      3.020320   565A      3.023507   566A      3.055148  
     567A      3.097325   568A      3.112270   569A      3.151953  
     570A      3.157944   571A      3.172797   572A      3.199412  
     573A      3.209909   574A      3.252245   575A      3.270000  
     576A      3.275940   577A      3.282236   578A      3.298034  
     579A      3.310895   580A      3.321690   581A      3.346429  
     582A      3.355517   583A      3.360745   584A      3.368580  
     585A      3.378274   586A      3.384096   587A      3.385170  
     588A      3.391930   589A      3.395085   590A      3.423769  
     591A      3.429996   592A      3.443736   593A      3.455852  
     594A      3.464640   595A      3.471319   596A      3.474694  
     597A      3.480617   598A      3.495529   599A      3.495559  
     600A      3.509015   601A      3.512766   602A      3.521291  
     603A      3.532374   604A      3.536830   605A      3.545851  
     606A      3.551880   607A      3.559416   608A      3.566727  
     609A      3.584623   610A      3.588178   611A      3.593491  
     612A      3.608162   613A      3.609654   614A      3.624697  
     615A      3.644578   616A      3.659148   617A      3.661304  
     618A      3.663203   619A      3.676327   620A      3.696815  
     621A      3.702072   622A      3.711390   623A      3.724299  
     624A      3.725271   625A      3.736944   626A      3.739382  
     627A      3.755402   628A      3.768111   629A      3.770469  
     630A      3.773879   631A      3.776859   632A      3.789848  
     633A      3.792824   634A      3.794005   635A      3.809947  
     636A      3.814822   637A      3.831578   638A      3.834483  
     639A      3.838743   640A      3.842474   641A      3.845298  
     642A      3.866508   643A      3.870885   644A      3.874253  
     645A      3.886973   646A      3.900774   647A      3.901406  
     648A      3.902775   649A      3.912221   650A      3.917948  
     651A      3.923074   652A      3.923809   653A      3.935659  
     654A      3.936536   655A      3.944710   656A      3.956882  
     657A      3.961622   658A      3.970642   659A      3.972978  
     660A      3.980625   661A      3.990910   662A      4.001598  
     663A      4.009991   664A      4.016436   665A      4.027383  
     666A      4.029376   667A      4.038575   668A      4.058020  
     669A      4.058514   670A      4.074562   671A      4.089182  
     672A      4.091907   673A      4.101267   674A      4.115783  
     675A      4.128342   676A      4.129290   677A      4.140286  
     678A      4.152381   679A      4.160518   680A      4.168776  
     681A      4.172526   682A      4.188618   683A      4.192125  
     684A      4.196002   685A      4.204002   686A      4.206305  
     687A      4.219895   688A      4.222027   689A      4.234123  
     690A      4.247634   691A      4.260420   692A      4.262405  
     693A      4.269029   694A      4.280501   695A      4.289548  
     696A      4.299516   697A      4.308353   698A      4.314884  
     699A      4.332789   700A      4.341178   701A      4.342419  
     702A      4.346479   703A      4.353618   704A      4.364446  
     705A      4.373503   706A      4.377686   707A      4.381184  
     708A      4.381194   709A      4.389843   710A      4.394207  
     711A      4.425985   712A      4.432529   713A      4.445169  
     714A      4.446461   715A      4.455554   716A      4.468834  
     717A      4.476062   718A      4.481467   719A      4.495045  
     720A      4.507559   721A      4.508447   722A      4.514384  
     723A      4.530429   724A      4.532620   725A      4.549513  
     726A      4.560944   727A      4.576565   728A      4.593048  
     729A      4.615370   730A      4.617820   731A      4.622294  
     732A      4.628664   733A      4.629977   734A      4.653692  
     735A      4.664676   736A      4.674710   737A      4.678726  
     738A      4.686135   739A      4.710331   740A      4.713040  
     741A      4.730727   742A      4.737680   743A      4.753905  
     744A      4.764671   745A      4.765948   746A      4.773581  
     747A      4.786287   748A      4.808947   749A      4.815956  
     750A      4.829491   751A      4.839734   752A      4.841101  
     753A      4.849482   754A      4.857703   755A      4.862835  
     756A      4.891035   757A      4.894694   758A      4.897519  
     759A      4.917643   760A      4.927025   761A      4.956867  
     762A      4.959072   763A      4.959794   764A      4.967425  
     765A      5.010781   766A      5.017284   767A      5.020001  
     768A      5.022641   769A      5.027144   770A      5.040892  
     771A      5.049302   772A      5.065429   773A      5.065447  
     774A      5.076044   775A      5.083791   776A      5.094734  
     777A      5.098691   778A      5.104708   779A      5.113464  
     780A      5.117562   781A      5.139074   782A      5.150971  
     783A      5.160759   784A      5.179119   785A      5.186054  
     786A      5.193973   787A      5.202765   788A      5.215997  
     789A      5.217600   790A      5.235519   791A      5.240257  
     792A      5.255667   793A      5.264400   794A      5.267257  
     795A      5.279415   796A      5.282224   797A      5.297250  
     798A      5.325139   799A      5.327174   800A      5.336975  
     801A      5.353639   802A      5.360790   803A      5.363073  
     804A      5.377703   805A      5.379427   806A      5.398424  
     807A      5.400570   808A      5.439706   809A      5.450712  
     810A      5.458365   811A      5.467488   812A      5.488436  
     813A      5.516053   814A      5.521908   815A      5.522986  
     816A      5.540603   817A      5.559625   818A      5.567552  
     819A      5.578309   820A      5.609636   821A      5.613728  
     822A      5.656309   823A      5.667217   824A      5.676753  
     825A      5.691774   826A      5.700989   827A      5.710847  
     828A      5.721570   829A      5.733348   830A      5.738521  
     831A      5.751891   832A      5.779247   833A      5.799713  
     834A      5.817763   835A      5.856456   836A      5.879090  
     837A      5.904614   838A      5.930523   839A      5.944561  
     840A      5.953053   841A      6.038298   842A      6.046882  
     843A      6.050551   844A      6.072920   845A      6.080717  
     846A      6.124580   847A      6.138492   848A      6.151094  
     849A      6.152641   850A      6.171496   851A      6.186750  
     852A      6.212353   853A      6.241424   854A      6.259403  
     855A      6.281350   856A      6.301063   857A      6.309570  
     858A      6.331276   859A      6.379467   860A      6.383246  
     861A      6.425221   862A      6.440580   863A      6.452613  
     864A      6.504888   865A      6.519075   866A      6.585838  
     867A      6.647515   868A      6.651529   869A      6.700743  
     870A      6.717710   871A      6.733560   872A      6.763267  
     873A      6.773936   874A      6.821767   875A      6.872298  
     876A      6.875894   877A      6.912794   878A      6.916021  
     879A      6.926147   880A      6.981081   881A      7.050477  
     882A      7.195275   883A      7.256179   884A      7.277410  
     885A      7.595366   886A     16.028647   887A     16.274226  
     888A     17.667204   889A     18.372047   890A     18.455261  
     891A     18.847284   892A     19.131658   893A     19.164252  
     894A     19.543509   895A     19.882968   896A     20.103131  
     897A     21.669947  

    Final Occupation by Irrep:
              A 
    DOCC [    44 ]

  @DF-RHF Final Energy:  -496.23313583977017

   => Energetics <=

    Nuclear Repulsion Energy =            705.6427713414032041
    One-Electron Energy =               -2058.7626315708130278
    Two-Electron Energy =                 856.8867243896396531
    Total Energy =                       -496.2331358397701706

Computation Completed

*** tstop() called on node142.bme.utexas.edu at Thu Feb 25 19:14:23 2021
Module time:
	user time   =    1206.93 seconds =      20.12 minutes
	system time =     105.56 seconds =       1.76 minutes
	total time  =        246 seconds =       4.10 minutes
Total time:
	user time   =    1206.93 seconds =      20.12 minutes
	system time =     105.56 seconds =       1.76 minutes
	total time  =        246 seconds =       4.10 minutes
   => Loading Basis Set <=

    Name: (AUG-CC-PVTZ AUX)
    Role: RIFIT
    Keyword: DF_BASIS_MP2
    atoms 1-2   entry N          line   206 file /home/xy3866/psi4conda/share/psi4/basis/aug-cc-pvtz-ri.gbs 
    atoms 3-12  entry C          line   148 file /home/xy3866/psi4conda/share/psi4/basis/aug-cc-pvtz-ri.gbs 
    atoms 13-27 entry H          line    30 file /home/xy3866/psi4conda/share/psi4/basis/aug-cc-pvtz-ri.gbs 


*** tstart() called on node142.bme.utexas.edu
*** at Thu Feb 25 19:14:23 2021


  //>>>>>>>>>>>>>>>>>>>>>>>>>>>>>>>>>>>//
  //               DFMP2               //
  //<<<<<<<<<<<<<<<<<<<<<<<<<<<<<<<<<<<//

	 --------------------------------------------------------
	                          DF-MP2                         
	      2nd-Order Density-Fitted Moller-Plesset Theory     
	              RMP2 Wavefunction,   8 Threads             
	                                                         
	        Rob Parrish, Justin Turney, Andy Simmonett,      
	           Ed Hohenstein, and C. David Sherrill          
	 --------------------------------------------------------

   => Auxiliary Basis Set <=

  Basis Set: (AUG-CC-PVTZ AUX)
    Blend: AUG-CC-PVTZ-RI
    Number of shells: 546
    Number of basis function: 1962
    Number of Cartesian functions: 2457
    Spherical Harmonics?: true
    Max angular momentum: 4

	 --------------------------------------------------------
	                 NBF =   897, NAUX =  1962
	 --------------------------------------------------------
	   CLASS    FOCC     OCC    AOCC    AVIR     VIR    FVIR
	   PAIRS       0      44      44     853     853       0
	 --------------------------------------------------------

  DFHelper Memory: AOs need 10.838 GiB; user supplied 22.352 GiB. Using in-core AOs.


         ------------------------------------------------------------
                                     CPHF                           
                                  Rob Parrish                       
         ------------------------------------------------------------

  ==> Geometry <==

    Molecular point group: c1
    Full point group: C1

    Geometry (in Angstrom), charge = 1, multiplicity = 1:

       Center              X                  Y                   Z               Mass       
    ------------   -----------------  -----------------  -----------------  -----------------
         N           -3.383798306787     0.200654676301    -0.000020579555    14.003074004430
         N           -0.605028306787    -0.288446323699     0.000029420445    14.003074004430
         C           -2.672776306787    -0.247286323699    -1.257345579555    12.000000000000
         C           -2.672779306787    -0.247052323699     1.257390420445    12.000000000000
         C           -1.237875306787     0.244228676301    -1.200386579555    12.000000000000
         C           -1.237880306787     0.244457676301     1.200338420445    12.000000000000
         C            0.832676693213    -0.119988323699     0.000011420445    12.000000000000
         C            1.422486693213     1.149716676301    -0.000095579555    12.000000000000
         C            1.622618693213    -1.271408323699     0.000112420445    12.000000000000
         C            2.814093693213     1.260447676301    -0.000109579555    12.000000000000
         C            3.013361693213    -1.152757323699     0.000097420445    12.000000000000
         C            3.608821693213     0.111228676301    -0.000009579555    12.000000000000
         H           -3.451779206787     1.428874976301    -0.000132879555     1.007825032230
         H           -4.354275306787    -0.141554323699     0.000009420445     1.007825032230
         H           -3.226809306787     0.154246676301    -2.109599579555     1.007825032230
         H           -2.710080306787    -1.338021323699    -1.264906579555     1.007825032230
         H           -2.710079306787    -1.337785323699     1.265151420445     1.007825032230
         H           -3.226815306787     0.154637676301     2.109567420445     1.007825032230
         H           -0.707616306787    -0.133282323699    -2.079307579555     1.007825032230
         H           -1.216696306787     1.349898676301    -1.252806579555     1.007825032230
         H           -1.216709306787     1.350138676301     1.252547420445     1.007825032230
         H           -0.707620306787    -0.132877323699     2.079335420445     1.007825032230
         H            0.810006693213     2.049940676301    -0.000173579555     1.007825032230
         H            1.138094693213    -2.244441323699     0.000194420445     1.007825032230
         H            3.277947693213     2.243332676301    -0.000192579555     1.007825032230
         H            3.631742693213    -2.046370323699     0.000177420445     1.007825032230
         H            4.691634693213     0.201381676301    -0.000024579555     1.007825032230

  Nuclear repulsion =  705.642771341403204
  Reference energy  = -496.233135839770171

  ==> Basis Set <==

  Basis Set: AUG-CC-PVTZ
    Blend: AUG-CC-PVTZ
    Number of shells: 303
    Number of basis function: 897
    Number of Cartesian functions: 1035
    Spherical Harmonics?: true
    Max angular momentum: 3

  ==> CGRSolver (by Rob Parrish) <==

   Number of roots    =         1
   Preconditioning    =    JACOBI
   Convergence cutoff =     1E-06
   Maximum iterations =       100

  ==> CPHFRHamiltonian (by Rob Parrish) <== 

  ==> MemDFJK: Density-Fitted J/K Matrices <==

    J tasked:                   Yes
    K tasked:                   Yes
    wK tasked:                   No
    OpenMP threads:               8
    Memory [MiB]:             22888
    Algorithm:                 Disk
    Schwarz Cutoff:           1E-12
    Mask sparsity (%):       8.7633
    Fitting Condition:        1E-10

   => Auxiliary Basis Set <=

  Basis Set: (AUG-CC-PVTZ AUX)
    Blend: AUG-CC-PVTZ-JKFIT
    Number of shells: 570
    Number of basis function: 1938
    Number of Cartesian functions: 2397
    Spherical Harmonics?: true
    Max angular momentum: 4

  ==> CPHF Iterations <==

  => Iterations <=

             Iter  Converged  Remaining    Residual
  CGR           1          0          1   7.802E-02
  CGR           2          0          1   1.635E-02
  CGR           3          0          1   6.214E-03
  CGR           4          0          1   2.381E-03
  CGR           5          0          1   9.441E-04
  CGR           6          0          1   4.685E-04
  CGR           7          0          1   2.286E-04
  CGR           8          0          1   6.613E-05
  CGR           9          0          1   2.045E-05
  CGR          10          0          1   5.135E-06
  CGR          11          0          1   1.551E-06
  CGR          12          1          0   5.186E-07

    CGRSolver converged.

	-----------------------------------------------------------
	 ==================> DF-MP2 Energies <==================== 
	-----------------------------------------------------------
	 Reference Energy          =    -496.2331358397701706 [Eh]
	 Singles Energy            =      -0.0000000000000000 [Eh]
	 Same-Spin Energy          =      -0.5409306997712566 [Eh]
	 Opposite-Spin Energy      =      -1.7627110280079434 [Eh]
	 Correlation Energy        =      -2.3036417277792003 [Eh]
	 Total Energy              =    -498.5367775675493931 [Eh]
	-----------------------------------------------------------
	 ================> DF-SCS-MP2 Energies <================== 
	-----------------------------------------------------------
	 SCS Same-Spin Scale       =       0.3333333333333333 [-]
	 SCS Opposite-Spin Scale   =       1.2000000000000000 [-]
	 SCS Same-Spin Energy      =      -0.1803102332570855 [Eh]
	 SCS Opposite-Spin Energy  =      -2.1152532336095322 [Eh]
	 SCS Correlation Energy    =      -2.2955634668666178 [Eh]
	 SCS Total Energy          =    -498.5286993066367813 [Eh]
	-----------------------------------------------------------



Properties will be evaluated at  -0.000000,  -0.000000,  -0.000000 [a0]

Properties computed using the MP2 density matrix

  Nuclear Dipole Moment: [e a0]
     X:    -9.3435      Y:     1.4609      Z:    -0.0002

  Electronic Dipole Moment: [e a0]
     X:     4.8120      Y:    -0.9523      Z:     0.0001

  Dipole Moment: [e a0]
     X:    -4.5314      Y:     0.5086      Z:    -0.0001     Total:     4.5599

  Dipole Moment: [D]
     X:   -11.5178      Y:     1.2928      Z:    -0.0001     Total:    11.5901


*** tstop() called on node142.bme.utexas.edu at Thu Feb 25 19:26:00 2021
Module time:
	user time   =    4444.27 seconds =      74.07 minutes
	system time =     135.59 seconds =       2.26 minutes
	total time  =        697 seconds =      11.62 minutes
Total time:
	user time   =    5651.52 seconds =      94.19 minutes
	system time =     241.16 seconds =       4.02 minutes
	total time  =        943 seconds =      15.72 minutes

    Psi4 stopped on: Thursday, 25 February 2021 07:26PM
    Psi4 wall time for execution: 0:15:43.35

*** Psi4 exiting successfully. Buy a developer a beer!
