70769                                                                   
Freq      RMP2-FC                                                     6-31G(d)            
Number of atoms                            I               19
Info1-9                                    I   N=           9
          31          29        1002           0           0         100
           6           2           1
Charge                                     I                0
Multiplicity                               I                1
Number of electrons                        I               76
Number of alpha electrons                  I               38
Number of beta electrons                   I               38
Number of basis functions                  I              181
Number of independent functions            I              181
Number of point charges in /Mol/           I                0
Number of translation vectors              I                0
Atomic numbers                             I   N=          19
           7           7           6           6           6           6
           6           6           6           6           6           1
           1           1           1           1           1           1
           1
Nuclear charges                            R   N=          19
  7.00000000E+00  7.00000000E+00  6.00000000E+00  6.00000000E+00  6.00000000E+00
  6.00000000E+00  6.00000000E+00  6.00000000E+00  6.00000000E+00  6.00000000E+00
  6.00000000E+00  1.00000000E+00  1.00000000E+00  1.00000000E+00  1.00000000E+00
  1.00000000E+00  1.00000000E+00  1.00000000E+00  1.00000000E+00
Current cartesian coordinates              R   N=          57
  1.91222012E+00  6.29718179E-02  1.52231441E-03  3.21212591E+00 -1.99674817E+00
 -7.89853592E-01 -7.67966571E-01  3.09656173E-02 -1.53087086E-02 -2.10214575E+00
  2.26147648E+00 -4.80095165E-01 -2.02756318E+00 -2.24219034E+00  4.51279993E-01
  3.46064503E+00  1.98588433E+00  7.69414810E-01 -4.73804116E+00  2.21481283E+00
 -4.35430125E-01 -4.66163532E+00 -2.26624013E+00  4.47868415E-01  5.91059442E+00
  1.13074477E+00  4.49403272E-01 -6.02365514E+00 -4.29006270E-02  2.64841417E-02
  5.65358827E+00 -1.33250006E+00 -5.08061966E-01 -1.09395054E+00  3.99387771E+00
 -9.26235902E-01 -9.30925532E-01 -3.94222829E+00  7.86349033E-01  2.70713772E+00
  3.72539901E+00  1.52952559E+00 -5.78579781E+00  3.94438139E+00 -7.97571023E-01
 -5.65442970E+00 -4.02932253E+00  8.03384900E-01  7.63054037E+00  2.14570198E+00
  8.79246177E-01 -8.07728364E+00 -7.31604804E-02  4.18087061E-02  7.11136337E+00
 -2.66853146E+00 -1.03151655E+00
Force Field                                I                0
Int Atom Types                             I   N=          19
           0           0           0           0           0           0
           0           0           0           0           0           0
           0           0           0           0           0           0
           0
MM charges                                 R   N=          19
  0.00000000E+00  0.00000000E+00  0.00000000E+00  0.00000000E+00  0.00000000E+00
  0.00000000E+00  0.00000000E+00  0.00000000E+00  0.00000000E+00  0.00000000E+00
  0.00000000E+00  0.00000000E+00  0.00000000E+00  0.00000000E+00  0.00000000E+00
  0.00000000E+00  0.00000000E+00  0.00000000E+00  0.00000000E+00
Integer atomic weights                     I   N=          19
          14          14          12          12          12          12
          12          12          12          12          12           1
           1           1           1           1           1           1
           1
Real atomic weights                        R   N=          19
  1.40030740E+01  1.40030740E+01  1.20000000E+01  1.20000000E+01  1.20000000E+01
  1.20000000E+01  1.20000000E+01  1.20000000E+01  1.20000000E+01  1.20000000E+01
  1.20000000E+01  1.00782504E+00  1.00782504E+00  1.00782504E+00  1.00782504E+00
  1.00782504E+00  1.00782504E+00  1.00782504E+00  1.00782504E+00
Atom fragment info                         I   N=          19
           0           0           0           0           0           0
           0           0           0           0           0           0
           0           0           0           0           0           0
           0
Atom residue num                           I   N=          19
           0           0           0           0           0           0
           0           0           0           0           0           0
           0           0           0           0           0           0
           0
Nuclear spins                              I   N=          19
           2           2           0           0           0           0
           0           0           0           0           0           1
           1           1           1           1           1           1
           1
Nuclear ZEff                               R   N=          19
 -4.55000000E+00 -4.55000000E+00 -3.60000000E+00 -3.60000000E+00 -3.60000000E+00
 -3.60000000E+00 -3.60000000E+00 -3.60000000E+00 -3.60000000E+00 -3.60000000E+00
 -3.60000000E+00 -1.00000000E+00 -1.00000000E+00 -1.00000000E+00 -1.00000000E+00
 -1.00000000E+00 -1.00000000E+00 -1.00000000E+00 -1.00000000E+00
Nuclear QMom                               R   N=          19
  2.04400000E+00  2.04400000E+00  0.00000000E+00  0.00000000E+00  0.00000000E+00
  0.00000000E+00  0.00000000E+00  0.00000000E+00  0.00000000E+00  0.00000000E+00
  0.00000000E+00  0.00000000E+00  0.00000000E+00  0.00000000E+00  0.00000000E+00
  0.00000000E+00  0.00000000E+00  0.00000000E+00  0.00000000E+00
Nuclear GFac                               R   N=          19
  4.03761000E-01  4.03761000E-01  0.00000000E+00  0.00000000E+00  0.00000000E+00
  0.00000000E+00  0.00000000E+00  0.00000000E+00  0.00000000E+00  0.00000000E+00
  0.00000000E+00  2.79284600E+00  2.79284600E+00  2.79284600E+00  2.79284600E+00
  2.79284600E+00  2.79284600E+00  2.79284600E+00  2.79284600E+00
MicOpt                                     I   N=          19
          -1          -1          -1          -1          -1          -1
          -1          -1          -1          -1          -1          -1
          -1          -1          -1          -1          -1          -1
          -1
Number of contracted shells                I               60
Number of primitive shells                 I              153
Pure/Cartesian d shells                    I                1
Pure/Cartesian f shells                    I                0
Highest angular momentum                   I                2
Largest degree of contraction              I                6
Shell types                                I   N=          60
           0          -1          -1           2           0          -1
          -1           2           0          -1          -1           2
           0          -1          -1           2           0          -1
          -1           2           0          -1          -1           2
           0          -1          -1           2           0          -1
          -1           2           0          -1          -1           2
           0          -1          -1           2           0          -1
          -1           2           0           0           0           0
           0           0           0           0           0           0
           0           0           0           0           0           0
Number of primitives per shell             I   N=          60
           6           3           1           1           6           3
           1           1           6           3           1           1
           6           3           1           1           6           3
           1           1           6           3           1           1
           6           3           1           1           6           3
           1           1           6           3           1           1
           6           3           1           1           6           3
           1           1           3           1           3           1
           3           1           3           1           3           1
           3           1           3           1           3           1
Shell to atom map                          I   N=          60
           1           1           1           1           2           2
           2           2           3           3           3           3
           4           4           4           4           5           5
           5           5           6           6           6           6
           7           7           7           7           8           8
           8           8           9           9           9           9
          10          10          10          10          11          11
          11          11          12          12          13          13
          14          14          15          15          16          16
          17          17          18          18          19          19
Primitive exponents                        R   N=         153
  4.17351146E+03  6.27457911E+02  1.42902093E+02  4.02343293E+01  1.28202129E+01
  4.39043701E+00  1.16263619E+01  2.71627981E+00  7.72218397E-01  2.12031498E-01
  8.00000000E-01  4.17351146E+03  6.27457911E+02  1.42902093E+02  4.02343293E+01
  1.28202129E+01  4.39043701E+00  1.16263619E+01  2.71627981E+00  7.72218397E-01
  2.12031498E-01  8.00000000E-01  3.04752488E+03  4.57369518E+02  1.03948685E+02
  2.92101553E+01  9.28666296E+00  3.16392696E+00  7.86827235E+00  1.88128854E+00
  5.44249258E-01  1.68714478E-01  8.00000000E-01  3.04752488E+03  4.57369518E+02
  1.03948685E+02  2.92101553E+01  9.28666296E+00  3.16392696E+00  7.86827235E+00
  1.88128854E+00  5.44249258E-01  1.68714478E-01  8.00000000E-01  3.04752488E+03
  4.57369518E+02  1.03948685E+02  2.92101553E+01  9.28666296E+00  3.16392696E+00
  7.86827235E+00  1.88128854E+00  5.44249258E-01  1.68714478E-01  8.00000000E-01
  3.04752488E+03  4.57369518E+02  1.03948685E+02  2.92101553E+01  9.28666296E+00
  3.16392696E+00  7.86827235E+00  1.88128854E+00  5.44249258E-01  1.68714478E-01
  8.00000000E-01  3.04752488E+03  4.57369518E+02  1.03948685E+02  2.92101553E+01
  9.28666296E+00  3.16392696E+00  7.86827235E+00  1.88128854E+00  5.44249258E-01
  1.68714478E-01  8.00000000E-01  3.04752488E+03  4.57369518E+02  1.03948685E+02
  2.92101553E+01  9.28666296E+00  3.16392696E+00  7.86827235E+00  1.88128854E+00
  5.44249258E-01  1.68714478E-01  8.00000000E-01  3.04752488E+03  4.57369518E+02
  1.03948685E+02  2.92101553E+01  9.28666296E+00  3.16392696E+00  7.86827235E+00
  1.88128854E+00  5.44249258E-01  1.68714478E-01  8.00000000E-01  3.04752488E+03
  4.57369518E+02  1.03948685E+02  2.92101553E+01  9.28666296E+00  3.16392696E+00
  7.86827235E+00  1.88128854E+00  5.44249258E-01  1.68714478E-01  8.00000000E-01
  3.04752488E+03  4.57369518E+02  1.03948685E+02  2.92101553E+01  9.28666296E+00
  3.16392696E+00  7.86827235E+00  1.88128854E+00  5.44249258E-01  1.68714478E-01
  8.00000000E-01  1.87311370E+01  2.82539436E+00  6.40121692E-01  1.61277759E-01
  1.87311370E+01  2.82539436E+00  6.40121692E-01  1.61277759E-01  1.87311370E+01
  2.82539436E+00  6.40121692E-01  1.61277759E-01  1.87311370E+01  2.82539436E+00
  6.40121692E-01  1.61277759E-01  1.87311370E+01  2.82539436E+00  6.40121692E-01
  1.61277759E-01  1.87311370E+01  2.82539436E+00  6.40121692E-01  1.61277759E-01
  1.87311370E+01  2.82539436E+00  6.40121692E-01  1.61277759E-01  1.87311370E+01
  2.82539436E+00  6.40121692E-01  1.61277759E-01
Contraction coefficients                   R   N=         153
  1.83477216E-03  1.39946270E-02  6.85865518E-02  2.32240873E-01  4.69069948E-01
  3.60455199E-01 -1.14961182E-01 -1.69117479E-01  1.14585195E+00  1.00000000E+00
  1.00000000E+00  1.83477216E-03  1.39946270E-02  6.85865518E-02  2.32240873E-01
  4.69069948E-01  3.60455199E-01 -1.14961182E-01 -1.69117479E-01  1.14585195E+00
  1.00000000E+00  1.00000000E+00  1.83473713E-03  1.40373228E-02  6.88426223E-02
  2.32184443E-01  4.67941348E-01  3.62311985E-01 -1.19332420E-01 -1.60854152E-01
  1.14345644E+00  1.00000000E+00  1.00000000E+00  1.83473713E-03  1.40373228E-02
  6.88426223E-02  2.32184443E-01  4.67941348E-01  3.62311985E-01 -1.19332420E-01
 -1.60854152E-01  1.14345644E+00  1.00000000E+00  1.00000000E+00  1.83473713E-03
  1.40373228E-02  6.88426223E-02  2.32184443E-01  4.67941348E-01  3.62311985E-01
 -1.19332420E-01 -1.60854152E-01  1.14345644E+00  1.00000000E+00  1.00000000E+00
  1.83473713E-03  1.40373228E-02  6.88426223E-02  2.32184443E-01  4.67941348E-01
  3.62311985E-01 -1.19332420E-01 -1.60854152E-01  1.14345644E+00  1.00000000E+00
  1.00000000E+00  1.83473713E-03  1.40373228E-02  6.88426223E-02  2.32184443E-01
  4.67941348E-01  3.62311985E-01 -1.19332420E-01 -1.60854152E-01  1.14345644E+00
  1.00000000E+00  1.00000000E+00  1.83473713E-03  1.40373228E-02  6.88426223E-02
  2.32184443E-01  4.67941348E-01  3.62311985E-01 -1.19332420E-01 -1.60854152E-01
  1.14345644E+00  1.00000000E+00  1.00000000E+00  1.83473713E-03  1.40373228E-02
  6.88426223E-02  2.32184443E-01  4.67941348E-01  3.62311985E-01 -1.19332420E-01
 -1.60854152E-01  1.14345644E+00  1.00000000E+00  1.00000000E+00  1.83473713E-03
  1.40373228E-02  6.88426223E-02  2.32184443E-01  4.67941348E-01  3.62311985E-01
 -1.19332420E-01 -1.60854152E-01  1.14345644E+00  1.00000000E+00  1.00000000E+00
  1.83473713E-03  1.40373228E-02  6.88426223E-02  2.32184443E-01  4.67941348E-01
  3.62311985E-01 -1.19332420E-01 -1.60854152E-01  1.14345644E+00  1.00000000E+00
  1.00000000E+00  3.34946043E-02  2.34726953E-01  8.13757326E-01  1.00000000E+00
  3.34946043E-02  2.34726953E-01  8.13757326E-01  1.00000000E+00  3.34946043E-02
  2.34726953E-01  8.13757326E-01  1.00000000E+00  3.34946043E-02  2.34726953E-01
  8.13757326E-01  1.00000000E+00  3.34946043E-02  2.34726953E-01  8.13757326E-01
  1.00000000E+00  3.34946043E-02  2.34726953E-01  8.13757326E-01  1.00000000E+00
  3.34946043E-02  2.34726953E-01  8.13757326E-01  1.00000000E+00  3.34946043E-02
  2.34726953E-01  8.13757326E-01  1.00000000E+00
P(S=P) Contraction coefficients            R   N=         153
  0.00000000E+00  0.00000000E+00  0.00000000E+00  0.00000000E+00  0.00000000E+00
  0.00000000E+00  6.75797439E-02  3.23907296E-01  7.40895140E-01  1.00000000E+00
  0.00000000E+00  0.00000000E+00  0.00000000E+00  0.00000000E+00  0.00000000E+00
  0.00000000E+00  0.00000000E+00  6.75797439E-02  3.23907296E-01  7.40895140E-01
  1.00000000E+00  0.00000000E+00  0.00000000E+00  0.00000000E+00  0.00000000E+00
  0.00000000E+00  0.00000000E+00  0.00000000E+00  6.89990666E-02  3.16423961E-01
  7.44308291E-01  1.00000000E+00  0.00000000E+00  0.00000000E+00  0.00000000E+00
  0.00000000E+00  0.00000000E+00  0.00000000E+00  0.00000000E+00  6.89990666E-02
  3.16423961E-01  7.44308291E-01  1.00000000E+00  0.00000000E+00  0.00000000E+00
  0.00000000E+00  0.00000000E+00  0.00000000E+00  0.00000000E+00  0.00000000E+00
  6.89990666E-02  3.16423961E-01  7.44308291E-01  1.00000000E+00  0.00000000E+00
  0.00000000E+00  0.00000000E+00  0.00000000E+00  0.00000000E+00  0.00000000E+00
  0.00000000E+00  6.89990666E-02  3.16423961E-01  7.44308291E-01  1.00000000E+00
  0.00000000E+00  0.00000000E+00  0.00000000E+00  0.00000000E+00  0.00000000E+00
  0.00000000E+00  0.00000000E+00  6.89990666E-02  3.16423961E-01  7.44308291E-01
  1.00000000E+00  0.00000000E+00  0.00000000E+00  0.00000000E+00  0.00000000E+00
  0.00000000E+00  0.00000000E+00  0.00000000E+00  6.89990666E-02  3.16423961E-01
  7.44308291E-01  1.00000000E+00  0.00000000E+00  0.00000000E+00  0.00000000E+00
  0.00000000E+00  0.00000000E+00  0.00000000E+00  0.00000000E+00  6.89990666E-02
  3.16423961E-01  7.44308291E-01  1.00000000E+00  0.00000000E+00  0.00000000E+00
  0.00000000E+00  0.00000000E+00  0.00000000E+00  0.00000000E+00  0.00000000E+00
  6.89990666E-02  3.16423961E-01  7.44308291E-01  1.00000000E+00  0.00000000E+00
  0.00000000E+00  0.00000000E+00  0.00000000E+00  0.00000000E+00  0.00000000E+00
  0.00000000E+00  6.89990666E-02  3.16423961E-01  7.44308291E-01  1.00000000E+00
  0.00000000E+00  0.00000000E+00  0.00000000E+00  0.00000000E+00  0.00000000E+00
  0.00000000E+00  0.00000000E+00  0.00000000E+00  0.00000000E+00  0.00000000E+00
  0.00000000E+00  0.00000000E+00  0.00000000E+00  0.00000000E+00  0.00000000E+00
  0.00000000E+00  0.00000000E+00  0.00000000E+00  0.00000000E+00  0.00000000E+00
  0.00000000E+00  0.00000000E+00  0.00000000E+00  0.00000000E+00  0.00000000E+00
  0.00000000E+00  0.00000000E+00  0.00000000E+00  0.00000000E+00  0.00000000E+00
  0.00000000E+00  0.00000000E+00  0.00000000E+00
Coordinates of each shell                  R   N=         180
  1.91222012E+00  6.29718179E-02  1.52231441E-03  1.91222012E+00  6.29718179E-02
  1.52231441E-03  1.91222012E+00  6.29718179E-02  1.52231441E-03  1.91222012E+00
  6.29718179E-02  1.52231441E-03  3.21212591E+00 -1.99674817E+00 -7.89853592E-01
  3.21212591E+00 -1.99674817E+00 -7.89853592E-01  3.21212591E+00 -1.99674817E+00
 -7.89853592E-01  3.21212591E+00 -1.99674817E+00 -7.89853592E-01 -7.67966571E-01
  3.09656173E-02 -1.53087086E-02 -7.67966571E-01  3.09656173E-02 -1.53087086E-02
 -7.67966571E-01  3.09656173E-02 -1.53087086E-02 -7.67966571E-01  3.09656173E-02
 -1.53087086E-02 -2.10214575E+00  2.26147648E+00 -4.80095165E-01 -2.10214575E+00
  2.26147648E+00 -4.80095165E-01 -2.10214575E+00  2.26147648E+00 -4.80095165E-01
 -2.10214575E+00  2.26147648E+00 -4.80095165E-01 -2.02756318E+00 -2.24219034E+00
  4.51279993E-01 -2.02756318E+00 -2.24219034E+00  4.51279993E-01 -2.02756318E+00
 -2.24219034E+00  4.51279993E-01 -2.02756318E+00 -2.24219034E+00  4.51279993E-01
  3.46064503E+00  1.98588433E+00  7.69414810E-01  3.46064503E+00  1.98588433E+00
  7.69414810E-01  3.46064503E+00  1.98588433E+00  7.69414810E-01  3.46064503E+00
  1.98588433E+00  7.69414810E-01 -4.73804116E+00  2.21481283E+00 -4.35430125E-01
 -4.73804116E+00  2.21481283E+00 -4.35430125E-01 -4.73804116E+00  2.21481283E+00
 -4.35430125E-01 -4.73804116E+00  2.21481283E+00 -4.35430125E-01 -4.66163532E+00
 -2.26624013E+00  4.47868415E-01 -4.66163532E+00 -2.26624013E+00  4.47868415E-01
 -4.66163532E+00 -2.26624013E+00  4.47868415E-01 -4.66163532E+00 -2.26624013E+00
  4.47868415E-01  5.91059442E+00  1.13074477E+00  4.49403272E-01  5.91059442E+00
  1.13074477E+00  4.49403272E-01  5.91059442E+00  1.13074477E+00  4.49403272E-01
  5.91059442E+00  1.13074477E+00  4.49403272E-01 -6.02365514E+00 -4.29006270E-02
  2.64841417E-02 -6.02365514E+00 -4.29006270E-02  2.64841417E-02 -6.02365514E+00
 -4.29006270E-02  2.64841417E-02 -6.02365514E+00 -4.29006270E-02  2.64841417E-02
  5.65358827E+00 -1.33250006E+00 -5.08061966E-01  5.65358827E+00 -1.33250006E+00
 -5.08061966E-01  5.65358827E+00 -1.33250006E+00 -5.08061966E-01  5.65358827E+00
 -1.33250006E+00 -5.08061966E-01 -1.09395054E+00  3.99387771E+00 -9.26235902E-01
 -1.09395054E+00  3.99387771E+00 -9.26235902E-01 -9.30925532E-01 -3.94222829E+00
  7.86349033E-01 -9.30925532E-01 -3.94222829E+00  7.86349033E-01  2.70713772E+00
  3.72539901E+00  1.52952559E+00  2.70713772E+00  3.72539901E+00  1.52952559E+00
 -5.78579781E+00  3.94438139E+00 -7.97571023E-01 -5.78579781E+00  3.94438139E+00
 -7.97571023E-01 -5.65442970E+00 -4.02932253E+00  8.03384900E-01 -5.65442970E+00
 -4.02932253E+00  8.03384900E-01  7.63054037E+00  2.14570198E+00  8.79246177E-01
  7.63054037E+00  2.14570198E+00  8.79246177E-01 -8.07728364E+00 -7.31604804E-02
  4.18087061E-02 -8.07728364E+00 -7.31604804E-02  4.18087061E-02  7.11136337E+00
 -2.66853146E+00 -1.03151655E+00  7.11136337E+00 -2.66853146E+00 -1.03151655E+00
Constraint Structure                       R   N=          57
  1.91222012E+00  6.29718179E-02  1.52231441E-03  3.21212591E+00 -1.99674817E+00
 -7.89853592E-01 -7.67966571E-01  3.09656173E-02 -1.53087086E-02 -2.10214575E+00
  2.26147648E+00 -4.80095165E-01 -2.02756318E+00 -2.24219034E+00  4.51279993E-01
  3.46064503E+00  1.98588433E+00  7.69414810E-01 -4.73804116E+00  2.21481283E+00
 -4.35430125E-01 -4.66163532E+00 -2.26624013E+00  4.47868415E-01  5.91059442E+00
  1.13074477E+00  4.49403272E-01 -6.02365514E+00 -4.29006270E-02  2.64841417E-02
  5.65358827E+00 -1.33250006E+00 -5.08061966E-01 -1.09395054E+00  3.99387771E+00
 -9.26235902E-01 -9.30925532E-01 -3.94222829E+00  7.86349033E-01  2.70713772E+00
  3.72539901E+00  1.52952559E+00 -5.78579781E+00  3.94438139E+00 -7.97571023E-01
 -5.65442970E+00 -4.02932253E+00  8.03384900E-01  7.63054037E+00  2.14570198E+00
  8.79246177E-01 -8.07728364E+00 -7.31604804E-02  4.18087061E-02  7.11136337E+00
 -2.66853146E+00 -1.03151655E+00
Num ILSW                                   I              100
ILSW                                       I   N=         100
           0           1           0           0           2           0
           0           0           0           0           0          -1
           0           0           0           0           0           0
           0           0           0           0           1           0
           1           0           0           0           0           0
           0           0      100000           0          -1           0
           0           0           0           0           0           0
           0           0           0           1           1           0
           0           0           1           0           0           0
           0           0           4          40           0           0
           0           0           0           0           0           0
           0           0           0           0           0           0
           0           0           0           0           0           0
           0           0           0           0           0           0
           0           0           0           0           0           0
           0           0           0           0           0           0
           0           0           0           0
Num RLSW                                   I               40
RLSW                                       R   N=          40
  1.00000000E+00  1.00000000E+00  1.00000000E+00  1.00000000E+00  1.00000000E+00
  0.00000000E+00  0.00000000E+00  1.00000000E+00  0.00000000E+00  0.00000000E+00
  0.00000000E+00  0.00000000E+00  1.00000000E+00  0.00000000E+00  0.00000000E+00
  0.00000000E+00  0.00000000E+00  1.00000000E+00  0.00000000E+00  0.00000000E+00
  0.00000000E+00  0.00000000E+00  1.00000000E+00  0.00000000E+00  0.00000000E+00
  0.00000000E+00  0.00000000E+00  1.00000000E+00  0.00000000E+00  0.00000000E+00
  0.00000000E+00  0.00000000E+00  0.00000000E+00  0.00000000E+00  0.00000000E+00
  0.00000000E+00  0.00000000E+00  0.00000000E+00  1.00000000E+00  1.00000000E+00
MxBond                                     I                3
NBond                                      I   N=          19
           3           2           3           3           3           3
           3           3           3           3           3           1
           1           1           1           1           1           1
           1
IBond                                      I   N=          57
           2           3           6           1          11           0
           1           4           5           3           7          12
           3           8          13           1           9          14
           4          10          15           5          10          16
           6          11          17           7           8          18
           2           9          19           4           0           0
           5           0           0           6           0           0
           7           0           0           8           0           0
           9           0           0          10           0           0
          11           0           0
RBond                                      R   N=          57
  1.50000000E+00  1.00000000E+00  1.00000000E+00  1.50000000E+00  1.50000000E+00
  0.00000000E+00  1.00000000E+00  1.50000000E+00  1.50000000E+00  1.50000000E+00
  1.50000000E+00  1.00000000E+00  1.50000000E+00  1.50000000E+00  1.00000000E+00
  1.00000000E+00  1.50000000E+00  1.00000000E+00  1.50000000E+00  1.50000000E+00
  1.00000000E+00  1.50000000E+00  1.50000000E+00  1.00000000E+00  1.50000000E+00
  1.50000000E+00  1.00000000E+00  1.50000000E+00  1.50000000E+00  1.00000000E+00
  1.50000000E+00  1.50000000E+00  1.00000000E+00  1.00000000E+00  0.00000000E+00
  0.00000000E+00  1.00000000E+00  0.00000000E+00  0.00000000E+00  1.00000000E+00
  0.00000000E+00  0.00000000E+00  1.00000000E+00  0.00000000E+00  0.00000000E+00
  1.00000000E+00  0.00000000E+00  0.00000000E+00  1.00000000E+00  0.00000000E+00
  0.00000000E+00  1.00000000E+00  0.00000000E+00  0.00000000E+00  1.00000000E+00
  0.00000000E+00  0.00000000E+00
Virial Ratio                               R      2.002487465240448E+00
SCF Energy                                 R     -4.543357521127032E+02
MP2 Energy                                 R     -4.558093088651414E+02
Total Energy                               R     -4.558093088651414E+02
Post-SCF wavefunction norm                 R      1.749958652502997E+00
RMS Force                                  R      5.799820998794239E-07
RMS Density                                R      3.749950063307569E-09
External E-field                           R   N=          35
  0.00000000E+00  0.00000000E+00  0.00000000E+00  0.00000000E+00  0.00000000E+00
  0.00000000E+00  0.00000000E+00  0.00000000E+00  0.00000000E+00  0.00000000E+00
  0.00000000E+00  0.00000000E+00  0.00000000E+00  0.00000000E+00  0.00000000E+00
  0.00000000E+00  0.00000000E+00  0.00000000E+00  0.00000000E+00  0.00000000E+00
  0.00000000E+00  0.00000000E+00  0.00000000E+00  0.00000000E+00  0.00000000E+00
  0.00000000E+00  0.00000000E+00  0.00000000E+00  0.00000000E+00  0.00000000E+00
  0.00000000E+00  0.00000000E+00  0.00000000E+00  0.00000000E+00  0.00000000E+00
IOpCl                                      I                0
IROHF                                      I                0
Alpha Orbital Energies                     R   N=         181
 -1.56522390E+01 -1.55887146E+01 -1.12884393E+01 -1.12794048E+01 -1.12556018E+01
 -1.12460870E+01 -1.12448346E+01 -1.12435223E+01 -1.12391857E+01 -1.12385803E+01
 -1.12249489E+01 -1.37745281E+00 -1.17041496E+00 -1.10516928E+00 -1.05872199E+00
 -1.01956406E+00 -9.93214123E-01 -8.55759076E-01 -8.42833497E-01 -7.91956973E-01
 -7.72214722E-01 -7.37480436E-01 -6.82217462E-01 -6.42668489E-01 -6.35047111E-01
 -6.08800941E-01 -5.92725354E-01 -5.89611370E-01 -5.83055264E-01 -5.58291130E-01
 -5.15490105E-01 -5.04311119E-01 -5.02163300E-01 -4.55229109E-01 -3.88110186E-01
 -3.42591468E-01 -3.39964663E-01 -3.06335009E-01  1.18800077E-01  1.35166126E-01
  1.90437145E-01  2.27341586E-01  2.42012112E-01  2.60341892E-01  2.85914683E-01
  2.97440236E-01  3.09202461E-01  3.14756319E-01  3.32347598E-01  3.41684321E-01
  3.58830289E-01  3.88210720E-01  4.14043682E-01  4.23484957E-01  4.56575260E-01
  4.67993434E-01  5.03576894E-01  5.19561838E-01  5.33049920E-01  5.97607175E-01
  6.37330348E-01  6.79060082E-01  7.11196103E-01  7.32786012E-01  7.40280326E-01
  7.67946232E-01  7.73871553E-01  7.85223853E-01  8.05704591E-01  8.11922823E-01
  8.17233876E-01  8.21141469E-01  8.28769446E-01  8.31772738E-01  8.37129542E-01
  8.42056515E-01  8.49889689E-01  8.83403697E-01  8.94482653E-01  9.16378690E-01
  9.36629873E-01  9.41005287E-01  9.89391836E-01  1.02825175E+00  1.03973173E+00
  1.06115268E+00  1.08742242E+00  1.10042675E+00  1.10683314E+00  1.10764908E+00
  1.11119823E+00  1.12028708E+00  1.12586378E+00  1.16621349E+00  1.17174603E+00
  1.19326281E+00  1.20592295E+00  1.22360169E+00  1.23770169E+00  1.26685399E+00
  1.29099186E+00  1.29934044E+00  1.32175489E+00  1.36259614E+00  1.39826065E+00
  1.41788834E+00  1.44724253E+00  1.46008196E+00  1.51731617E+00  1.53569282E+00
  1.63323133E+00  1.63978636E+00  1.67196679E+00  1.67808083E+00  1.69300715E+00
  1.70863568E+00  1.74025015E+00  1.75300429E+00  1.76469030E+00  1.77672856E+00
  1.78784210E+00  1.82921123E+00  1.84612442E+00  1.91764636E+00  2.01720171E+00
  2.10981868E+00  2.11279443E+00  2.13032459E+00  2.15338109E+00  2.17238405E+00
  2.26432502E+00  2.26666846E+00  2.28517638E+00  2.29531585E+00  2.33722316E+00
  2.39104739E+00  2.40832451E+00  2.42352248E+00  2.43798386E+00  2.45553918E+00
  2.47182410E+00  2.51552056E+00  2.53543653E+00  2.55289705E+00  2.56975859E+00
  2.57914683E+00  2.61489769E+00  2.62681433E+00  2.64037042E+00  2.68481700E+00
  2.68821724E+00  2.81311841E+00  2.85134405E+00  2.91301760E+00  2.91654773E+00
  2.96606884E+00  3.00277973E+00  3.00609076E+00  3.03272414E+00  3.06243270E+00
  3.09177742E+00  3.09867836E+00  3.10916213E+00  3.15071347E+00  3.21109484E+00
  3.32701533E+00  3.34672374E+00  3.47978787E+00  3.63379310E+00  3.80286865E+00
  4.26212919E+00  4.46572755E+00  4.51300539E+00  4.53414729E+00  4.53695298E+00
  4.57643505E+00  4.69374108E+00  4.74875632E+00  4.81210325E+00  4.86718994E+00
  5.14331383E+00
Alpha MO coefficients                      R   N=       32761
  9.95045699E-01  2.52120170E-02  6.47812646E-05 -1.50610897E-04 -5.33911079E-05
 -5.08907103E-03  3.84225265E-04  4.35178757E-05  1.79668200E-05 -3.29738779E-03
 -3.25631029E-03 -3.22360966E-03  1.69270383E-05  5.51154295E-06 -2.55145292E-05
  5.57246096E-03  3.00270296E-04 -1.48375569E-04  1.91779921E-04  6.62821093E-05
  9.08876877E-04 -2.02423793E-04  3.67305311E-04  1.66636488E-04 -1.03886247E-04
 -1.60538944E-04 -5.32366176E-05  3.80937410E-05  1.18325888E-05 -5.45716320E-05
  1.64413409E-05  2.31964560E-04  1.36267057E-04  1.52868183E-06  4.21679803E-06
  6.77351113E-04  2.55707652E-03  3.72998882E-05 -1.68356939E-05 -6.64091178E-05
 -5.90715799E-05 -6.30809151E-05  7.48496987E-06  3.51051436E-06 -1.97780795E-05
 -9.89449050E-06 -5.39645821E-05 -8.85738731E-06  5.59731647E-06  1.20537368E-05