
    -----------------------------------------------------------------------
          Psi4: An Open-Source Ab Initio Electronic Structure Package
                               Psi4 1.4a3.dev225 

                         Git: Rev {master} 7105e37 


    D. G. A. Smith, L. A. Burns, A. C. Simmonett, R. M. Parrish,
    M. C. Schieber, R. Galvelis, P. Kraus, H. Kruse, R. Di Remigio,
    A. Alenaizan, A. M. James, S. Lehtola, J. P. Misiewicz, M. Scheurer,
    R. A. Shaw, J. B. Schriber, Y. Xie, Z. L. Glick, D. A. Sirianni,
    J. S. O'Brien, J. M. Waldrop, A. Kumar, E. G. Hohenstein,
    B. P. Pritchard, B. R. Brooks, H. F. Schaefer III, A. Yu. Sokolov,
    K. Patkowski, A. E. DePrince III, U. Bozkaya, R. A. King,
    F. A. Evangelista, J. M. Turney, T. D. Crawford, C. D. Sherrill,
    J. Chem. Phys. 152(18) 184108 (2020). https://doi.org/10.1063/5.0006002

                            Additional Code Authors
    E. T. Seidl, C. L. Janssen, E. F. Valeev, M. L. Leininger,
    J. F. Gonthier, R. M. Richard, H. R. McAlexander, M. Saitow, X. Wang,
    P. Verma, and M. H. Lechner

             Previous Authors, Complete List of Code Contributors,
                       and Citations for Specific Modules
    https://github.com/psi4/psi4/blob/master/codemeta.json
    https://github.com/psi4/psi4/graphs/contributors
    http://psicode.org/psi4manual/master/introduction.html#citing-psifour

    -----------------------------------------------------------------------


    Psi4 started on: Sunday, 28 February 2021 07:26PM

    Process ID: 41360
    Host:       c419-034.stampede2.tacc.utexas.edu
    PSIDATADIR: /home1/07844/xy3866/miniconda3/envs/p4env/share/psi4
    Memory:     500.0 MiB
    Threads:    32
    
  ==> Input File <==

--------------------------------------------------------------------------
#psi4
#
memory 32 gb

molecule  {
0 1
  C       -2.1229620    -0.0000010    -0.5285820
  C       -3.0262580     0.7522420     0.4138790
  C       -3.0262580    -0.7522400     0.4138820
  C       -0.6463130    -0.0000010    -0.3104390
  C        0.0658190     1.2029900    -0.2211540
  C        0.0658190    -1.2029910    -0.2211540
  C        1.4490316     1.2500078    -0.0473194
  C        1.4498130    -1.2013260    -0.0471800
  C        2.1649180     0.0000000     0.0407490
  C        3.6537450     0.0000010     0.2729580
  H       -2.4338460    -0.0000040    -1.5729350
  H       -3.8872420     1.2699250     0.0031310
  H       -2.5562430     1.2534570     1.2541040
  H       -2.5562430    -1.2534530     1.2541090
  H       -3.8872430    -1.2699240     0.0031370
  H       -0.4732260     2.1464250    -0.2897140
  H       -0.4732250    -2.1464270    -0.2897140
  H        1.9843610     2.1482350     0.0181390
  H        1.9843620    -2.1482350     0.0181390
  H        4.1207180    -0.8853500    -0.1681390
  H        4.1207180     0.8853520    -0.1681380
  H        3.8883030     0.0000000     1.3432050
units angstrom
no_reorient  #important for SAPT in psi4, default
symmetry c1  #important for SAPT in psi4, default
}

set PROPERTIES_ORIGIN ["COM"]
properties('MP2/aug-cc-pvtz', properties = ['dipole'])
--------------------------------------------------------------------------

  Memory set to  29.802 GiB by Python driver.
    SCF Algorithm Type (re)set to DF.

*** tstart() called on c419-034.stampede2.tacc.utexas.edu
*** at Sun Feb 28 19:26:18 2021

   => Loading Basis Set <=

    Name: AUG-CC-PVTZ
    Role: ORBITAL
    Keyword: BASIS
    atoms 1-10  entry C          line   239 file /home1/07844/xy3866/miniconda3/envs/p4env/share/psi4/basis/aug-cc-pvtz.gbs 
    atoms 11-22 entry H          line    40 file /home1/07844/xy3866/miniconda3/envs/p4env/share/psi4/basis/aug-cc-pvtz.gbs 


         ---------------------------------------------------------
                                   SCF
               by Justin Turney, Rob Parrish, Andy Simmonett
                          and Daniel G. A. Smith
                              RHF Reference
                       32 Threads,  30517 MiB Core
         ---------------------------------------------------------

  ==> Geometry <==

    Molecular point group: c1
    Full point group: C1

    Geometry (in Angstrom), charge = 0, multiplicity = 1:

       Center              X                  Y                   Z               Mass       
    ------------   -----------------  -----------------  -----------------  -----------------
         C           -2.124159090003    -0.004423479813    -0.518013729320    12.000000000000
         C           -3.027455090003     0.747819520187     0.424447270680    12.000000000000
         C           -3.027455090003    -0.756662479813     0.424450270680    12.000000000000
         C           -0.647510090003    -0.004423479813    -0.299870729320    12.000000000000
         C            0.064621909997     1.198567520187    -0.210585729320    12.000000000000
         C            0.064621909997    -1.207413479813    -0.210585729320    12.000000000000
         C            1.447834509997     1.245585320187    -0.036751129320    12.000000000000
         C            1.448615909997    -1.205748479813    -0.036611729320    12.000000000000
         C            2.163720909997    -0.004422479813     0.051317270680    12.000000000000
         C            3.652547909997    -0.004421479813     0.283526270680    12.000000000000
         H           -2.435043090003    -0.004426479813    -1.562366729320     1.007825032230
         H           -3.888439090003     1.265502520187     0.013699270680     1.007825032230
         H           -2.557440090003     1.249034520187     1.264672270680     1.007825032230
         H           -2.557440090003    -1.257875479813     1.264677270680     1.007825032230
         H           -3.888440090003    -1.274346479813     0.013705270680     1.007825032230
         H           -0.474423090003     2.142002520187    -0.279145729320     1.007825032230
         H           -0.474422090003    -2.150849479813    -0.279145729320     1.007825032230
         H            1.983163909997     2.143812520187     0.028707270680     1.007825032230
         H            1.983164909997    -2.152657479813     0.028707270680     1.007825032230
         H            4.119520909997    -0.889772479813    -0.157570729320     1.007825032230
         H            4.119520909997     0.880929520187    -0.157569729320     1.007825032230
         H            3.887105909997    -0.004422479813     1.353773270680     1.007825032230

  Running in c1 symmetry.

  Rotational constants: A =      0.13026  B =      0.02509  C =      0.02206 [cm^-1]
  Rotational constants: A =   3905.07981  B =    752.31395  C =    661.25034 [MHz]
  Nuclear repulsion =  481.859812991195270

  Charge       = 0
  Multiplicity = 1
  Electrons    = 72
  Nalpha       = 36
  Nbeta        = 36

  ==> Algorithm <==

  SCF Algorithm Type is DF.
  DIIS enabled.
  MOM disabled.
  Fractional occupation disabled.
  Guess Type is SAD.
  Energy threshold   = 1.00e-10
  Density threshold  = 1.00e-10
  Integral threshold = 1.00e-12

  ==> Primary Basis <==

  Basis Set: AUG-CC-PVTZ
    Blend: AUG-CC-PVTZ
    Number of shells: 248
    Number of basis functions: 736
    Number of Cartesian functions: 850
    Spherical Harmonics?: true
    Max angular momentum: 3

   => Loading Basis Set <=

    Name: (AUG-CC-PVTZ AUX)
    Role: JKFIT
    Keyword: DF_BASIS_SCF
    atoms 1-10  entry C          line   162 file /home1/07844/xy3866/miniconda3/envs/p4env/share/psi4/basis/aug-cc-pvtz-jkfit.gbs 
    atoms 11-22 entry H          line    70 file /home1/07844/xy3866/miniconda3/envs/p4env/share/psi4/basis/aug-cc-pvtz-jkfit.gbs 

  ==> Integral Setup <==

  DFHelper Memory: AOs need 5.915 GiB; user supplied 22.352 GiB. Using in-core AOs.

  ==> MemDFJK: Density-Fitted J/K Matrices <==

    J tasked:                   Yes
    K tasked:                   Yes
    wK tasked:                   No
    OpenMP threads:              32
    Memory [MiB]:             22888
    Algorithm:                 Core
    Schwarz Cutoff:           1E-12
    Mask sparsity (%):      11.9462
    Fitting Condition:        1E-10

   => Auxiliary Basis Set <=

  Basis Set: (AUG-CC-PVTZ AUX)
    Blend: AUG-CC-PVTZ-JKFIT
    Number of shells: 468
    Number of basis functions: 1592
    Number of Cartesian functions: 1970
    Spherical Harmonics?: true
    Max angular momentum: 4

  Minimum eigenvalue in the overlap matrix is 4.8506654996E-07.
  Reciprocal condition number of the overlap matrix is 2.3614955668E-08.
    Using symmetric orthogonalization.

  ==> Pre-Iterations <==

  SCF Guess: Superposition of Atomic Densities via on-the-fly atomic UHF (no occupation information).

   -------------------------
    Irrep   Nso     Nmo    
   -------------------------
     A        736     736 
   -------------------------
    Total     736     736
   -------------------------

  ==> Iterations <==

                           Total Energy        Delta E     RMS |[F,P]|

   @DF-RHF iter SAD:  -385.38643209255684   -3.85386e+02   0.00000e+00 
   @DF-RHF iter   1:  -385.44238787531464   -5.59558e-02   9.70564e-04 DIIS
   @DF-RHF iter   2:  -385.70848587871581   -2.66098e-01   4.37557e-04 DIIS
   @DF-RHF iter   3:  -385.76239797307221   -5.39121e-02   8.78667e-05 DIIS
   @DF-RHF iter   4:  -385.76577084642037   -3.37287e-03   2.83878e-05 DIIS
   @DF-RHF iter   5:  -385.76604195346727   -2.71107e-04   8.06860e-06 DIIS
   @DF-RHF iter   6:  -385.76606559338529   -2.36399e-05   2.70158e-06 DIIS
   @DF-RHF iter   7:  -385.76606847732489   -2.88394e-06   6.03514e-07 DIIS
   @DF-RHF iter   8:  -385.76606873187302   -2.54548e-07   2.26941e-07 DIIS
   @DF-RHF iter   9:  -385.76606877703995   -4.51669e-08   9.28714e-08 DIIS
   @DF-RHF iter  10:  -385.76606878938492   -1.23450e-08   4.37752e-08 DIIS
   @DF-RHF iter  11:  -385.76606879360583   -4.22091e-09   1.52049e-08 DIIS
   @DF-RHF iter  12:  -385.76606879409928   -4.93458e-10   5.79462e-09 DIIS
   @DF-RHF iter  13:  -385.76606879413151   -3.22302e-11   1.98336e-09 DIIS
   @DF-RHF iter  14:  -385.76606879413595   -4.43379e-12   6.80227e-10 DIIS
   @DF-RHF iter  15:  -385.76606879413623   -2.84217e-13   2.54042e-10 DIIS
   @DF-RHF iter  16:  -385.76606879413555    6.82121e-13   8.20462e-11 DIIS
  Energy and wave function converged.


  ==> Post-Iterations <==

    Orbital Energies [Eh]
    ---------------------

    Doubly Occupied:                                                      

       1A    -11.242807     2A    -11.234008     3A    -11.233007  
       4A    -11.229948     5A    -11.229766     6A    -11.228428  
       7A    -11.227082     8A    -11.224523     9A    -11.223861  
      10A    -11.222287    11A     -1.161739    12A     -1.127279  
      13A     -1.037181    14A     -1.007993    15A     -0.935850  
      16A     -0.834801    17A     -0.828979    18A     -0.808846  
      19A     -0.766689    20A     -0.687921    21A     -0.651993  
      22A     -0.633273    23A     -0.628092    24A     -0.601596  
      25A     -0.580192    26A     -0.572275    27A     -0.540063  
      28A     -0.526342    29A     -0.512199    30A     -0.490145  
      31A     -0.482763    32A     -0.473328    33A     -0.423653  
      34A     -0.413077    35A     -0.332430    36A     -0.308757  

    Virtual:                                                              

      37A      0.028960    38A      0.031323    39A      0.033329  
      40A      0.039049    41A      0.043380    42A      0.044956  
      43A      0.050513    44A      0.057768    45A      0.061103  
      46A      0.063108    47A      0.063316    48A      0.081674  
      49A      0.091508    50A      0.096739    51A      0.102642  
      52A      0.106636    53A      0.111970    54A      0.113118  
      55A      0.117540    56A      0.119898    57A      0.122293  
      58A      0.123628    59A      0.129024    60A      0.134837  
      61A      0.137607    62A      0.139297    63A      0.144843  
      64A      0.145774    65A      0.148814    66A      0.149974  
      67A      0.152791    68A      0.155982    69A      0.160491  
      70A      0.165771    71A      0.167450    72A      0.168633  
      73A      0.175432    74A      0.176075    75A      0.187737  
      76A      0.194375    77A      0.197645    78A      0.206768  
      79A      0.206998    80A      0.222111    81A      0.223780  
      82A      0.226720    83A      0.233454    84A      0.245597  
      85A      0.252485    86A      0.255211    87A      0.260656  
      88A      0.262920    89A      0.267614    90A      0.273856  
      91A      0.277654    92A      0.281462    93A      0.290687  
      94A      0.292916    95A      0.295177    96A      0.297999  
      97A      0.310433    98A      0.311407    99A      0.315282  
     100A      0.323734   101A      0.325096   102A      0.325580  
     103A      0.335205   104A      0.338678   105A      0.343586  
     106A      0.347214   107A      0.352461   108A      0.354471  
     109A      0.357412   110A      0.361276   111A      0.366787  
     112A      0.370015   113A      0.377791   114A      0.384403  
     115A      0.387629   116A      0.388518   117A      0.393764  
     118A      0.396718   119A      0.399566   120A      0.407941  
     121A      0.409557   122A      0.417833   123A      0.422930  
     124A      0.424222   125A      0.431846   126A      0.435251  
     127A      0.438157   128A      0.443666   129A      0.447183  
     130A      0.447981   131A      0.457123   132A      0.459886  
     133A      0.461578   134A      0.466833   135A      0.468478  
     136A      0.470299   137A      0.474741   138A      0.477051  
     139A      0.481985   140A      0.483836   141A      0.488291  
     142A      0.492407   143A      0.498805   144A      0.502491  
     145A      0.505372   146A      0.512415   147A      0.516471  
     148A      0.520181   149A      0.521406   150A      0.524100  
     151A      0.526119   152A      0.532189   153A      0.533132  
     154A      0.534419   155A      0.544219   156A      0.548261  
     157A      0.550909   158A      0.555841   159A      0.562438  
     160A      0.563787   161A      0.568361   162A      0.571614  
     163A      0.576398   164A      0.577682   165A      0.581707  
     166A      0.584821   167A      0.590131   168A      0.594228  
     169A      0.597842   170A      0.607050   171A      0.615188  
     172A      0.623220   173A      0.627892   174A      0.634345  
     175A      0.639531   176A      0.643359   177A      0.648303  
     178A      0.659713   179A      0.665795   180A      0.669831  
     181A      0.680896   182A      0.682166   183A      0.690454  
     184A      0.693456   185A      0.703103   186A      0.712123  
     187A      0.720528   188A      0.730800   189A      0.731568  
     190A      0.743756   191A      0.757107   192A      0.766019  
     193A      0.766723   194A      0.777235   195A      0.779964  
     196A      0.783340   197A      0.799304   198A      0.803964  
     199A      0.811026   200A      0.818140   201A      0.827327  
     202A      0.843152   203A      0.848956   204A      0.853071  
     205A      0.855269   206A      0.862011   207A      0.871301  
     208A      0.877419   209A      0.879140   210A      0.881963  
     211A      0.886286   212A      0.889324   213A      0.893443  
     214A      0.896227   215A      0.906433   216A      0.911097  
     217A      0.919413   218A      0.921782   219A      0.924583  
     220A      0.926727   221A      0.933405   222A      0.936598  
     223A      0.939730   224A      0.944082   225A      0.950137  
     226A      0.955124   227A      0.963787   228A      0.972341  
     229A      0.977606   230A      0.978440   231A      0.979940  
     232A      0.985378   233A      0.988445   234A      0.995474  
     235A      0.997892   236A      1.003152   237A      1.008230  
     238A      1.011766   239A      1.015646   240A      1.020809  
     241A      1.028575   242A      1.031981   243A      1.034732  
     244A      1.037437   245A      1.044370   246A      1.053495  
     247A      1.066390   248A      1.066908   249A      1.069384  
     250A      1.075002   251A      1.079524   252A      1.081645  
     253A      1.087927   254A      1.093340   255A      1.094611  
     256A      1.105757   257A      1.108408   258A      1.115408  
     259A      1.124424   260A      1.125405   261A      1.132929  
     262A      1.137938   263A      1.149885   264A      1.152310  
     265A      1.154728   266A      1.161502   267A      1.164589  
     268A      1.167763   269A      1.173029   270A      1.173820  
     271A      1.187099   272A      1.189363   273A      1.191674  
     274A      1.195038   275A      1.197588   276A      1.202012  
     277A      1.207901   278A      1.219388   279A      1.222152  
     280A      1.237001   281A      1.238135   282A      1.242661  
     283A      1.252636   284A      1.260090   285A      1.268081  
     286A      1.273038   287A      1.277420   288A      1.281081  
     289A      1.288383   290A      1.296167   291A      1.303292  
     292A      1.310524   293A      1.313162   294A      1.328372  
     295A      1.330360   296A      1.336391   297A      1.339810  
     298A      1.348899   299A      1.356882   300A      1.367212  
     301A      1.373510   302A      1.377212   303A      1.385363  
     304A      1.387476   305A      1.398046   306A      1.404651  
     307A      1.417271   308A      1.418637   309A      1.421758  
     310A      1.434150   311A      1.443238   312A      1.443721  
     313A      1.452356   314A      1.452690   315A      1.460129  
     316A      1.474192   317A      1.485995   318A      1.493365  
     319A      1.499289   320A      1.505221   321A      1.513801  
     322A      1.520744   323A      1.532740   324A      1.543812  
     325A      1.547290   326A      1.557302   327A      1.565333  
     328A      1.575601   329A      1.581241   330A      1.587636  
     331A      1.597544   332A      1.604497   333A      1.619049  
     334A      1.621408   335A      1.627367   336A      1.632120  
     337A      1.645760   338A      1.649224   339A      1.656168  
     340A      1.664726   341A      1.672712   342A      1.685712  
     343A      1.688143   344A      1.705390   345A      1.711252  
     346A      1.714566   347A      1.717606   348A      1.733409  
     349A      1.739243   350A      1.744786   351A      1.748305  
     352A      1.751371   353A      1.756444   354A      1.762713  
     355A      1.776760   356A      1.788100   357A      1.798752  
     358A      1.803091   359A      1.812337   360A      1.815412  
     361A      1.824223   362A      1.826099   363A      1.839649  
     364A      1.849686   365A      1.851865   366A      1.862785  
     367A      1.874112   368A      1.880737   369A      1.886627  
     370A      1.898529   371A      1.904525   372A      1.913289  
     373A      1.921020   374A      1.925722   375A      1.929629  
     376A      1.938084   377A      1.941169   378A      1.949404  
     379A      1.964331   380A      1.970419   381A      1.983772  
     382A      1.986038   383A      1.996932   384A      2.009618  
     385A      2.015365   386A      2.015885   387A      2.028833  
     388A      2.030335   389A      2.039993   390A      2.051563  
     391A      2.061582   392A      2.064174   393A      2.074984  
     394A      2.087334   395A      2.087846   396A      2.090200  
     397A      2.104449   398A      2.113256   399A      2.115191  
     400A      2.127379   401A      2.133730   402A      2.135695  
     403A      2.143271   404A      2.158270   405A      2.165804  
     406A      2.176407   407A      2.182735   408A      2.188213  
     409A      2.210933   410A      2.212839   411A      2.217530  
     412A      2.227066   413A      2.234173   414A      2.236617  
     415A      2.252394   416A      2.262052   417A      2.279525  
     418A      2.280423   419A      2.281598   420A      2.293007  
     421A      2.306367   422A      2.314413   423A      2.327567  
     424A      2.343442   425A      2.345530   426A      2.367561  
     427A      2.375432   428A      2.389558   429A      2.398073  
     430A      2.401542   431A      2.412115   432A      2.417948  
     433A      2.438248   434A      2.445604   435A      2.447765  
     436A      2.463455   437A      2.472835   438A      2.482949  
     439A      2.499584   440A      2.512200   441A      2.528522  
     442A      2.554244   443A      2.561188   444A      2.568773  
     445A      2.581277   446A      2.591816   447A      2.626048  
     448A      2.641159   449A      2.662880   450A      2.665983  
     451A      2.682044   452A      2.716272   453A      2.761446  
     454A      2.780283   455A      2.794586   456A      2.808564  
     457A      2.839240   458A      2.849240   459A      2.877937  
     460A      2.893592   461A      2.939645   462A      2.994089  
     463A      3.025617   464A      3.033180   465A      3.077940  
     466A      3.141170   467A      3.169500   468A      3.187715  
     469A      3.260992   470A      3.274735   471A      3.282195  
     472A      3.297530   473A      3.306834   474A      3.308138  
     475A      3.321598   476A      3.335691   477A      3.360102  
     478A      3.366203   479A      3.375799   480A      3.396520  
     481A      3.410330   482A      3.433191   483A      3.435440  
     484A      3.458537   485A      3.464189   486A      3.473535  
     487A      3.489527   488A      3.496611   489A      3.511445  
     490A      3.515897   491A      3.520631   492A      3.547993  
     493A      3.556068   494A      3.562372   495A      3.572999  
     496A      3.577849   497A      3.583841   498A      3.590085  
     499A      3.594327   500A      3.596609   501A      3.615169  
     502A      3.625686   503A      3.631636   504A      3.654283  
     505A      3.667890   506A      3.674082   507A      3.676715  
     508A      3.687979   509A      3.696275   510A      3.700919  
     511A      3.702678   512A      3.711117   513A      3.716467  
     514A      3.731970   515A      3.743308   516A      3.746218  
     517A      3.764662   518A      3.770122   519A      3.788460  
     520A      3.791745   521A      3.802041   522A      3.808018  
     523A      3.810578   524A      3.814838   525A      3.820254  
     526A      3.851901   527A      3.865184   528A      3.865423  
     529A      3.889828   530A      3.893970   531A      3.900119  
     532A      3.905674   533A      3.915969   534A      3.924292  
     535A      3.932156   536A      3.941223   537A      3.955061  
     538A      3.956258   539A      3.962191   540A      3.977513  
     541A      3.985030   542A      3.991945   543A      3.994059  
     544A      3.997758   545A      4.005922   546A      4.008815  
     547A      4.025464   548A      4.041622   549A      4.046839  
     550A      4.056163   551A      4.058490   552A      4.068770  
     553A      4.074899   554A      4.083580   555A      4.093887  
     556A      4.104429   557A      4.111107   558A      4.120287  
     559A      4.125553   560A      4.153753   561A      4.155811  
     562A      4.176328   563A      4.180018   564A      4.187783  
     565A      4.202736   566A      4.206687   567A      4.220726  
     568A      4.223506   569A      4.226060   570A      4.229047  
     571A      4.254777   572A      4.265823   573A      4.268162  
     574A      4.275096   575A      4.290266   576A      4.292722  
     577A      4.301901   578A      4.320291   579A      4.323784  
     580A      4.338194   581A      4.347184   582A      4.363443  
     583A      4.372927   584A      4.383130   585A      4.386247  
     586A      4.399373   587A      4.421769   588A      4.431029  
     589A      4.433804   590A      4.445070   591A      4.461865  
     592A      4.467141   593A      4.474757   594A      4.479999  
     595A      4.483772   596A      4.488559   597A      4.491954  
     598A      4.503055   599A      4.511683   600A      4.543343  
     601A      4.554803   602A      4.559961   603A      4.569682  
     604A      4.571236   605A      4.601082   606A      4.610803  
     607A      4.635821   608A      4.639673   609A      4.674434  
     610A      4.682896   611A      4.689333   612A      4.715781  
     613A      4.730887   614A      4.739567   615A      4.748489  
     616A      4.753071   617A      4.761880   618A      4.764567  
     619A      4.789837   620A      4.813779   621A      4.817937  
     622A      4.838698   623A      4.840415   624A      4.878166  
     625A      4.885677   626A      4.892624   627A      4.917756  
     628A      4.919121   629A      4.921812   630A      4.930242  
     631A      4.953085   632A      4.956713   633A      4.989183  
     634A      4.990533   635A      5.001351   636A      5.003424  
     637A      5.010259   638A      5.018734   639A      5.034021  
     640A      5.050272   641A      5.062933   642A      5.084890  
     643A      5.093030   644A      5.102671   645A      5.116217  
     646A      5.126611   647A      5.131362   648A      5.145219  
     649A      5.157077   650A      5.172848   651A      5.191553  
     652A      5.194958   653A      5.201511   654A      5.207637  
     655A      5.218463   656A      5.235711   657A      5.257676  
     658A      5.263594   659A      5.287063   660A      5.304171  
     661A      5.324628   662A      5.333672   663A      5.341825  
     664A      5.363098   665A      5.377468   666A      5.384742  
     667A      5.429345   668A      5.452138   669A      5.453555  
     670A      5.466746   671A      5.475469   672A      5.490942  
     673A      5.501821   674A      5.516082   675A      5.536218  
     676A      5.554487   677A      5.572738   678A      5.594990  
     679A      5.614259   680A      5.641327   681A      5.661505  
     682A      5.689949   683A      5.693383   684A      5.716313  
     685A      5.726434   686A      5.740056   687A      5.760182  
     688A      5.765475   689A      5.783032   690A      5.807873  
     691A      5.820708   692A      5.854996   693A      5.869172  
     694A      5.948930   695A      5.962878   696A      6.003526  
     697A      6.068445   698A      6.101519   699A      6.111976  
     700A      6.142382   701A      6.163664   702A      6.181153  
     703A      6.204055   704A      6.216764   705A      6.273018  
     706A      6.300336   707A      6.311488   708A      6.373650  
     709A      6.398944   710A      6.451098   711A      6.459800  
     712A      6.507660   713A      6.532737   714A      6.591534  
     715A      6.600729   716A      6.613098   717A      6.686866  
     718A      6.734764   719A      6.775208   720A      6.789209  
     721A      6.850594   722A      6.862956   723A      6.940836  
     724A      6.978701   725A      7.080480   726A      7.235470  
     727A     16.075638   728A     16.409104   729A     17.533653  
     730A     17.899054   731A     17.936480   732A     18.286381  
     733A     19.245068   734A     20.131448   735A     20.493921  
     736A     21.437301  

    Final Occupation by Irrep:
              A 
    DOCC [    36 ]

  @DF-RHF Final Energy:  -385.76606879413555

   => Energetics <=

    Nuclear Repulsion Energy =            481.8598129911952697
    One-Electron Energy =               -1475.9254193366532490
    Two-Electron Energy =                 608.2995375513224872
    Total Energy =                       -385.7660687941355491

Computation Completed

*** tstop() called on c419-034.stampede2.tacc.utexas.edu at Sun Feb 28 19:27:00 2021
Module time:
	user time   =     780.99 seconds =      13.02 minutes
	system time =      48.57 seconds =       0.81 minutes
	total time  =         42 seconds =       0.70 minutes
Total time:
	user time   =     780.99 seconds =      13.02 minutes
	system time =      48.57 seconds =       0.81 minutes
	total time  =         42 seconds =       0.70 minutes
   => Loading Basis Set <=

    Name: (AUG-CC-PVTZ AUX)
    Role: RIFIT
    Keyword: DF_BASIS_MP2
    atoms 1-10  entry C          line   148 file /home1/07844/xy3866/miniconda3/envs/p4env/share/psi4/basis/aug-cc-pvtz-ri.gbs 
    atoms 11-22 entry H          line    30 file /home1/07844/xy3866/miniconda3/envs/p4env/share/psi4/basis/aug-cc-pvtz-ri.gbs 


*** tstart() called on c419-034.stampede2.tacc.utexas.edu
*** at Sun Feb 28 19:27:02 2021


  //>>>>>>>>>>>>>>>>>>>>>>>>>>>>>>>>>>>//
  //               DFMP2               //
  //<<<<<<<<<<<<<<<<<<<<<<<<<<<<<<<<<<<//

	 --------------------------------------------------------
	                          DF-MP2                         
	      2nd-Order Density-Fitted Moller-Plesset Theory     
	              RMP2 Wavefunction,  32 Threads             
	                                                         
	        Rob Parrish, Justin Turney, Andy Simmonett,      
	           Ed Hohenstein, and C. David Sherrill          
	 --------------------------------------------------------

   => Auxiliary Basis Set <=

  Basis Set: (AUG-CC-PVTZ AUX)
    Blend: AUG-CC-PVTZ-RI
    Number of shells: 448
    Number of basis functions: 1612
    Number of Cartesian functions: 2020
    Spherical Harmonics?: true
    Max angular momentum: 4

	 --------------------------------------------------------
	                 NBF =   736, NAUX =  1612
	 --------------------------------------------------------
	   CLASS    FOCC     OCC    AOCC    AVIR     VIR    FVIR
	   PAIRS       0      36      36     700     700       0
	 --------------------------------------------------------

  DFHelper Memory: AOs need 6.175 GiB; user supplied 22.352 GiB. Using in-core AOs.


         ------------------------------------------------------------
                                     CPHF                           
                                  Rob Parrish                       
         ------------------------------------------------------------

  ==> Geometry <==

    Molecular point group: c1
    Full point group: C1

    Geometry (in Angstrom), charge = 0, multiplicity = 1:

       Center              X                  Y                   Z               Mass       
    ------------   -----------------  -----------------  -----------------  -----------------
         C           -2.124159090003    -0.004423479813    -0.518013729320    12.000000000000
         C           -3.027455090003     0.747819520187     0.424447270680    12.000000000000
         C           -3.027455090003    -0.756662479813     0.424450270680    12.000000000000
         C           -0.647510090003    -0.004423479813    -0.299870729320    12.000000000000
         C            0.064621909997     1.198567520187    -0.210585729320    12.000000000000
         C            0.064621909997    -1.207413479813    -0.210585729320    12.000000000000
         C            1.447834509997     1.245585320187    -0.036751129320    12.000000000000
         C            1.448615909997    -1.205748479813    -0.036611729320    12.000000000000
         C            2.163720909997    -0.004422479813     0.051317270680    12.000000000000
         C            3.652547909997    -0.004421479813     0.283526270680    12.000000000000
         H           -2.435043090003    -0.004426479813    -1.562366729320     1.007825032230
         H           -3.888439090003     1.265502520187     0.013699270680     1.007825032230
         H           -2.557440090003     1.249034520187     1.264672270680     1.007825032230
         H           -2.557440090003    -1.257875479813     1.264677270680     1.007825032230
         H           -3.888440090003    -1.274346479813     0.013705270680     1.007825032230
         H           -0.474423090003     2.142002520187    -0.279145729320     1.007825032230
         H           -0.474422090003    -2.150849479813    -0.279145729320     1.007825032230
         H            1.983163909997     2.143812520187     0.028707270680     1.007825032230
         H            1.983164909997    -2.152657479813     0.028707270680     1.007825032230
         H            4.119520909997    -0.889772479813    -0.157570729320     1.007825032230
         H            4.119520909997     0.880929520187    -0.157569729320     1.007825032230
         H            3.887105909997    -0.004422479813     1.353773270680     1.007825032230

  Nuclear repulsion =  481.859812991195383
  Reference energy  = -385.766068794135549

  ==> Basis Set <==

  Basis Set: AUG-CC-PVTZ
    Blend: AUG-CC-PVTZ
    Number of shells: 248
    Number of basis functions: 736
    Number of Cartesian functions: 850
    Spherical Harmonics?: true
    Max angular momentum: 3

  ==> CGRSolver (by Rob Parrish) <==

   Number of roots    =         1
   Preconditioning    =    JACOBI
   Convergence cutoff =     1E-06
   Maximum iterations =       100

  ==> CPHFRHamiltonian (by Rob Parrish) <== 

  ==> MemDFJK: Density-Fitted J/K Matrices <==

    J tasked:                   Yes
    K tasked:                   Yes
    wK tasked:                   No
    OpenMP threads:              32
    Memory [MiB]:             22888
    Algorithm:                 Core
    Schwarz Cutoff:           1E-12
    Mask sparsity (%):       7.8893
    Fitting Condition:        1E-10

   => Auxiliary Basis Set <=

  Basis Set: (AUG-CC-PVTZ AUX)
    Blend: AUG-CC-PVTZ-JKFIT
    Number of shells: 468
    Number of basis functions: 1592
    Number of Cartesian functions: 1970
    Spherical Harmonics?: true
    Max angular momentum: 4

  ==> CPHF Iterations <==

  => Iterations <=

             Iter  Converged  Remaining    Residual
  CGR           1          0          1   7.683E-02
  CGR           2          0          1   1.520E-02
  CGR           3          0          1   6.815E-03
  CGR           4          0          1   3.647E-03
  CGR           5          0          1   1.723E-03
  CGR           6          0          1   7.317E-04
  CGR           7          0          1   2.200E-04
  CGR           8          0          1   6.690E-05
  CGR           9          0          1   2.455E-05
  CGR          10          0          1   1.190E-05
  CGR          11          0          1   4.306E-06
  CGR          12          0          1   1.377E-06
  CGR          13          1          0   4.086E-07

    CGRSolver converged.

	-----------------------------------------------------------
	 ==================> DF-MP2 Energies <==================== 
	-----------------------------------------------------------
	 Reference Energy          =    -385.7660687941355491 [Eh]
	 Singles Energy            =      -0.0000000000000000 [Eh]
	 Same-Spin Energy          =      -0.4316869485419936 [Eh]
	 Opposite-Spin Energy      =      -1.4118396487598277 [Eh]
	 Correlation Energy        =      -1.8435265973018213 [Eh]
	 Total Energy              =    -387.6095953914373808 [Eh]
	-----------------------------------------------------------
	 ================> DF-SCS-MP2 Energies <================== 
	-----------------------------------------------------------
	 SCS Same-Spin Scale       =       0.3333333333333333 [-]
	 SCS Opposite-Spin Scale   =       1.2000000000000000 [-]
	 SCS Same-Spin Energy      =      -0.1438956495139979 [Eh]
	 SCS Opposite-Spin Energy  =      -1.6942075785117932 [Eh]
	 SCS Correlation Energy    =      -1.8381032280257910 [Eh]
	 SCS Total Energy          =    -387.6041720221613218 [Eh]
	-----------------------------------------------------------



Properties will be evaluated at  -0.000000,  -0.000000,  -0.000000 [a0]

Properties computed using the MP2 density matrix

  Nuclear Dipole Moment: [e a0]
     X:    -0.1717      Y:    -0.0498      Z:     1.4363

  Electronic Dipole Moment: [e a0]
     X:     0.2230      Y:     0.0539      Z:    -1.4227

  Dipole Moment: [e a0]
     X:     0.0513      Y:     0.0041      Z:     0.0137     Total:     0.0533

  Dipole Moment: [D]
     X:     0.1304      Y:     0.0105      Z:     0.0347     Total:     0.1354


*** tstop() called on c419-034.stampede2.tacc.utexas.edu at Sun Feb 28 19:31:18 2021
Module time:
	user time   =    2459.57 seconds =      40.99 minutes
	system time =      70.37 seconds =       1.17 minutes
	total time  =        256 seconds =       4.27 minutes
Total time:
	user time   =    3241.65 seconds =      54.03 minutes
	system time =     118.96 seconds =       1.98 minutes
	total time  =        300 seconds =       5.00 minutes

    Psi4 stopped on: Sunday, 28 February 2021 07:31PM
    Psi4 wall time for execution: 0:05:01.93

*** Psi4 exiting successfully. Buy a developer a beer!
