
    -----------------------------------------------------------------------
          Psi4: An Open-Source Ab Initio Electronic Structure Package
                               Psi4 1.4a3.dev225 

                         Git: Rev {master} 7105e37 


    D. G. A. Smith, L. A. Burns, A. C. Simmonett, R. M. Parrish,
    M. C. Schieber, R. Galvelis, P. Kraus, H. Kruse, R. Di Remigio,
    A. Alenaizan, A. M. James, S. Lehtola, J. P. Misiewicz, M. Scheurer,
    R. A. Shaw, J. B. Schriber, Y. Xie, Z. L. Glick, D. A. Sirianni,
    J. S. O'Brien, J. M. Waldrop, A. Kumar, E. G. Hohenstein,
    B. P. Pritchard, B. R. Brooks, H. F. Schaefer III, A. Yu. Sokolov,
    K. Patkowski, A. E. DePrince III, U. Bozkaya, R. A. King,
    F. A. Evangelista, J. M. Turney, T. D. Crawford, C. D. Sherrill,
    J. Chem. Phys. 152(18) 184108 (2020). https://doi.org/10.1063/5.0006002

                            Additional Code Authors
    E. T. Seidl, C. L. Janssen, E. F. Valeev, M. L. Leininger,
    J. F. Gonthier, R. M. Richard, H. R. McAlexander, M. Saitow, X. Wang,
    P. Verma, and M. H. Lechner

             Previous Authors, Complete List of Code Contributors,
                       and Citations for Specific Modules
    https://github.com/psi4/psi4/blob/master/codemeta.json
    https://github.com/psi4/psi4/graphs/contributors
    http://psicode.org/psi4manual/master/introduction.html#citing-psifour

    -----------------------------------------------------------------------


    Psi4 started on: Sunday, 28 February 2021 08:33PM

    Process ID: 52303
    Host:       c419-034.stampede2.tacc.utexas.edu
    PSIDATADIR: /home1/07844/xy3866/miniconda3/envs/p4env/share/psi4
    Memory:     500.0 MiB
    Threads:    32
    
  ==> Input File <==

--------------------------------------------------------------------------
#psi4
#
memory 32 gb

molecule  {
0 1
  C       -2.1229620    -0.0000010    -0.5285820
  C       -3.0262580     0.7522420     0.4138790
  C       -3.0262580    -0.7522400     0.4138820
  C       -0.6463130    -0.0000010    -0.3104390
  C        0.0658190     1.2029900    -0.2211540
  C        0.0658190    -1.2029910    -0.2211540
  C        1.4498120     1.2013260    -0.0471800
  C        1.4465671    -1.2986323    -0.0476706
  C        2.1649180     0.0000000     0.0407490
  C        3.6537450     0.0000010     0.2729580
  H       -2.4338460    -0.0000040    -1.5729350
  H       -3.8872420     1.2699250     0.0031310
  H       -2.5562430     1.2534570     1.2541040
  H       -2.5562430    -1.2534530     1.2541090
  H       -3.8872430    -1.2699240     0.0031370
  H       -0.4732260     2.1464250    -0.2897140
  H       -0.4732250    -2.1464270    -0.2897140
  H        1.9843610     2.1482350     0.0181390
  H        1.9843620    -2.1482350     0.0181390
  H        4.1207180    -0.8853500    -0.1681390
  H        4.1207180     0.8853520    -0.1681380
  H        3.8883030     0.0000000     1.3432050
units angstrom
no_reorient  #important for SAPT in psi4, default
symmetry c1  #important for SAPT in psi4, default
}

set PROPERTIES_ORIGIN ["COM"]
properties('MP2/aug-cc-pvtz', properties = ['dipole'])
--------------------------------------------------------------------------

  Memory set to  29.802 GiB by Python driver.
    SCF Algorithm Type (re)set to DF.

*** tstart() called on c419-034.stampede2.tacc.utexas.edu
*** at Sun Feb 28 20:33:44 2021

   => Loading Basis Set <=

    Name: AUG-CC-PVTZ
    Role: ORBITAL
    Keyword: BASIS
    atoms 1-10  entry C          line   239 file /home1/07844/xy3866/miniconda3/envs/p4env/share/psi4/basis/aug-cc-pvtz.gbs 
    atoms 11-22 entry H          line    40 file /home1/07844/xy3866/miniconda3/envs/p4env/share/psi4/basis/aug-cc-pvtz.gbs 


         ---------------------------------------------------------
                                   SCF
               by Justin Turney, Rob Parrish, Andy Simmonett
                          and Daniel G. A. Smith
                              RHF Reference
                       32 Threads,  30517 MiB Core
         ---------------------------------------------------------

  ==> Geometry <==

    Molecular point group: c1
    Full point group: C1

    Geometry (in Angstrom), charge = 0, multiplicity = 1:

       Center              X                  Y                   Z               Mass       
    ------------   -----------------  -----------------  -----------------  -----------------
         C           -2.123935112969     0.008838731348    -0.517981824744    12.000000000000
         C           -3.027231112969     0.761081731348     0.424479175256    12.000000000000
         C           -3.027231112969    -0.743400268652     0.424482175256    12.000000000000
         C           -0.647286112969     0.008838731348    -0.299838824744    12.000000000000
         C            0.064845887031     1.211829731348    -0.210553824744    12.000000000000
         C            0.064845887031    -1.194151268652    -0.210553824744    12.000000000000
         C            1.448838887031     1.210165731348    -0.036579824744    12.000000000000
         C            1.445593987031    -1.289792568652    -0.037070424744    12.000000000000
         C            2.163944887031     0.008839731348     0.051349175256    12.000000000000
         C            3.652771887031     0.008840731348     0.283558175256    12.000000000000
         H           -2.434819112969     0.008835731348    -1.562334824744     1.007825032230
         H           -3.888215112969     1.278764731348     0.013731175256     1.007825032230
         H           -2.557216112969     1.262296731348     1.264704175256     1.007825032230
         H           -2.557216112969    -1.244613268652     1.264709175256     1.007825032230
         H           -3.888216112969    -1.261084268652     0.013737175256     1.007825032230
         H           -0.474199112969     2.155264731348    -0.279113824744     1.007825032230
         H           -0.474198112969    -2.137587268652    -0.279113824744     1.007825032230
         H            1.983387887031     2.157074731348     0.028739175256     1.007825032230
         H            1.983388887031    -2.139395268652     0.028739175256     1.007825032230
         H            4.119744887031    -0.876510268652    -0.157538824744     1.007825032230
         H            4.119744887031     0.894191731348    -0.157537824744     1.007825032230
         H            3.887329887031     0.008839731348     1.353805175256     1.007825032230

  Running in c1 symmetry.

  Rotational constants: A =      0.12879  B =      0.02510  C =      0.02202 [cm^-1]
  Rotational constants: A =   3861.04521  B =    752.40536  C =    660.04661 [MHz]
  Nuclear repulsion =  481.130587121506892

  Charge       = 0
  Multiplicity = 1
  Electrons    = 72
  Nalpha       = 36
  Nbeta        = 36

  ==> Algorithm <==

  SCF Algorithm Type is DF.
  DIIS enabled.
  MOM disabled.
  Fractional occupation disabled.
  Guess Type is SAD.
  Energy threshold   = 1.00e-10
  Density threshold  = 1.00e-10
  Integral threshold = 1.00e-12

  ==> Primary Basis <==

  Basis Set: AUG-CC-PVTZ
    Blend: AUG-CC-PVTZ
    Number of shells: 248
    Number of basis functions: 736
    Number of Cartesian functions: 850
    Spherical Harmonics?: true
    Max angular momentum: 3

   => Loading Basis Set <=

    Name: (AUG-CC-PVTZ AUX)
    Role: JKFIT
    Keyword: DF_BASIS_SCF
    atoms 1-10  entry C          line   162 file /home1/07844/xy3866/miniconda3/envs/p4env/share/psi4/basis/aug-cc-pvtz-jkfit.gbs 
    atoms 11-22 entry H          line    70 file /home1/07844/xy3866/miniconda3/envs/p4env/share/psi4/basis/aug-cc-pvtz-jkfit.gbs 

  ==> Integral Setup <==

  DFHelper Memory: AOs need 5.914 GiB; user supplied 22.352 GiB. Using in-core AOs.

  ==> MemDFJK: Density-Fitted J/K Matrices <==

    J tasked:                   Yes
    K tasked:                   Yes
    wK tasked:                   No
    OpenMP threads:              32
    Memory [MiB]:             22888
    Algorithm:                 Core
    Schwarz Cutoff:           1E-12
    Mask sparsity (%):      11.9576
    Fitting Condition:        1E-10

   => Auxiliary Basis Set <=

  Basis Set: (AUG-CC-PVTZ AUX)
    Blend: AUG-CC-PVTZ-JKFIT
    Number of shells: 468
    Number of basis functions: 1592
    Number of Cartesian functions: 1970
    Spherical Harmonics?: true
    Max angular momentum: 4

  Minimum eigenvalue in the overlap matrix is 5.4192160023E-07.
  Reciprocal condition number of the overlap matrix is 2.6400433092E-08.
    Using symmetric orthogonalization.

  ==> Pre-Iterations <==

  SCF Guess: Superposition of Atomic Densities via on-the-fly atomic UHF (no occupation information).

   -------------------------
    Irrep   Nso     Nmo    
   -------------------------
     A        736     736 
   -------------------------
    Total     736     736
   -------------------------

  ==> Iterations <==

                           Total Energy        Delta E     RMS |[F,P]|

   @DF-RHF iter SAD:  -385.33073461939489   -3.85331e+02   0.00000e+00 
   @DF-RHF iter   1:  -385.43568824885756   -1.04954e-01   9.65043e-04 DIIS
   @DF-RHF iter   2:  -385.70001314490383   -2.64325e-01   4.32790e-04 DIIS
   @DF-RHF iter   3:  -385.75270678213252   -5.26936e-02   8.92169e-05 DIIS
   @DF-RHF iter   4:  -385.75610157516485   -3.39479e-03   3.16253e-05 DIIS
   @DF-RHF iter   5:  -385.75643350284776   -3.31928e-04   8.55027e-06 DIIS
   @DF-RHF iter   6:  -385.75646110301147   -2.76002e-05   2.77858e-06 DIIS
   @DF-RHF iter   7:  -385.75646455811642   -3.45510e-06   6.99126e-07 DIIS
   @DF-RHF iter   8:  -385.75646502431459   -4.66198e-07   3.14397e-07 DIIS
   @DF-RHF iter   9:  -385.75646515605303   -1.31738e-07   1.49320e-07 DIIS
   @DF-RHF iter  10:  -385.75646519881548   -4.27625e-08   6.45365e-08 DIIS
   @DF-RHF iter  11:  -385.75646520837103   -9.55555e-09   1.71091e-08 DIIS
   @DF-RHF iter  12:  -385.75646520880673   -4.35705e-10   7.62935e-09 DIIS
   @DF-RHF iter  13:  -385.75646520884072   -3.39924e-11   2.07602e-09 DIIS
   @DF-RHF iter  14:  -385.75646520884322   -2.50111e-12   6.84497e-10 DIIS
   @DF-RHF iter  15:  -385.75646520884169    1.53477e-12   2.32554e-10 DIIS
   @DF-RHF iter  16:  -385.75646520884294   -1.25056e-12   6.13118e-11 DIIS
  Energy and wave function converged.


  ==> Post-Iterations <==

    Orbital Energies [Eh]
    ---------------------

    Doubly Occupied:                                                      

       1A    -11.247445     2A    -11.234034     3A    -11.233081  
       4A    -11.231024     5A    -11.230724     6A    -11.229610  
       7A    -11.226767     8A    -11.224438     9A    -11.223748  
      10A    -11.222198    11A     -1.160540    12A     -1.124658  
      13A     -1.035531    14A     -1.009333    15A     -0.935376  
      16A     -0.836360    17A     -0.826721    18A     -0.809558  
      19A     -0.766726    20A     -0.689360    21A     -0.651796  
      22A     -0.638165    23A     -0.626183    24A     -0.603599  
      25A     -0.582154    26A     -0.571541    27A     -0.541381  
      28A     -0.524651    29A     -0.512136    30A     -0.492416  
      31A     -0.481351    32A     -0.466849    33A     -0.423129  
      34A     -0.413294    35A     -0.333797    36A     -0.305342  

    Virtual:                                                              

      37A      0.028898    38A      0.031348    39A      0.033256  
      40A      0.039079    41A      0.043390    42A      0.044947  
      43A      0.050500    44A      0.057780    45A      0.061129  
      46A      0.063069    47A      0.063367    48A      0.081588  
      49A      0.091538    50A      0.096354    51A      0.101604  
      52A      0.106526    53A      0.111513    54A      0.113035  
      55A      0.117897    56A      0.119979    57A      0.122172  
      58A      0.123811    59A      0.128935    60A      0.134545  
      61A      0.137070    62A      0.138942    63A      0.143973  
      64A      0.145630    65A      0.148351    66A      0.150462  
      67A      0.152869    68A      0.156297    69A      0.160434  
      70A      0.165576    71A      0.167505    72A      0.168542  
      73A      0.175245    74A      0.176161    75A      0.188020  
      76A      0.194293    77A      0.197788    78A      0.205075  
      79A      0.207059    80A      0.221098    81A      0.223171  
      82A      0.227133    83A      0.233301    84A      0.245767  
      85A      0.252281    86A      0.255169    87A      0.260444  
      88A      0.262829    89A      0.267975    90A      0.273019  
      91A      0.277448    92A      0.280973    93A      0.290831  
      94A      0.294700    95A      0.295455    96A      0.297446  
      97A      0.309471    98A      0.311402    99A      0.315502  
     100A      0.323904   101A      0.324925   102A      0.326282  
     103A      0.334793   104A      0.338500   105A      0.343233  
     106A      0.347651   107A      0.352412   108A      0.354572  
     109A      0.357626   110A      0.360821   111A      0.366714  
     112A      0.370339   113A      0.377639   114A      0.383482  
     115A      0.387558   116A      0.389081   117A      0.394012  
     118A      0.396142   119A      0.399953   120A      0.407812  
     121A      0.410836   122A      0.418915   123A      0.421665  
     124A      0.424579   125A      0.431981   126A      0.434476  
     127A      0.438007   128A      0.443088   129A      0.447711  
     130A      0.448232   131A      0.457166   132A      0.459751  
     133A      0.462084   134A      0.466502   135A      0.468549  
     136A      0.470333   137A      0.473494   138A      0.477480  
     139A      0.480210   140A      0.483721   141A      0.486942  
     142A      0.491038   143A      0.497769   144A      0.502292  
     145A      0.505388   146A      0.511671   147A      0.516158  
     148A      0.519630   149A      0.521710   150A      0.524243  
     151A      0.525850   152A      0.531149   153A      0.531560  
     154A      0.534223   155A      0.543795   156A      0.547830  
     157A      0.551009   158A      0.556375   159A      0.562013  
     160A      0.563544   161A      0.567785   162A      0.570950  
     163A      0.576364   164A      0.578168   165A      0.580944  
     166A      0.584382   167A      0.589784   168A      0.594743  
     169A      0.598103   170A      0.608434   171A      0.614080  
     172A      0.622753   173A      0.627379   174A      0.633894  
     175A      0.639965   176A      0.643603   177A      0.648209  
     178A      0.659591   179A      0.664370   180A      0.668311  
     181A      0.679233   182A      0.682109   183A      0.685022  
     184A      0.692158   185A      0.700470   186A      0.710106  
     187A      0.722223   188A      0.726794   189A      0.730657  
     190A      0.744105   191A      0.755126   192A      0.764934  
     193A      0.767554   194A      0.776121   195A      0.779899  
     196A      0.784405   197A      0.794197   198A      0.802477  
     199A      0.815445   200A      0.819706   201A      0.828058  
     202A      0.840962   203A      0.846180   204A      0.851354  
     205A      0.854607   206A      0.856661   207A      0.869463  
     208A      0.875992   209A      0.879760   210A      0.883149  
     211A      0.886339   212A      0.888912   213A      0.893678  
     214A      0.897787   215A      0.905732   216A      0.911725  
     217A      0.918273   218A      0.919983   219A      0.924272  
     220A      0.926098   221A      0.929934   222A      0.937256  
     223A      0.938683   224A      0.944069   225A      0.951260  
     226A      0.958303   227A      0.962251   228A      0.971591  
     229A      0.976291   230A      0.977859   231A      0.979657  
     232A      0.984678   233A      0.989626   234A      0.994129  
     235A      0.998276   236A      1.003118   237A      1.008036  
     238A      1.012112   239A      1.016929   240A      1.021156  
     241A      1.029166   242A      1.031002   243A      1.034963  
     244A      1.037030   245A      1.045833   246A      1.053997  
     247A      1.065897   248A      1.067081   249A      1.072325  
     250A      1.074086   251A      1.079159   252A      1.081260  
     253A      1.087878   254A      1.092420   255A      1.094170  
     256A      1.103560   257A      1.108850   258A      1.115725  
     259A      1.124088   260A      1.125870   261A      1.134502  
     262A      1.139290   263A      1.149273   264A      1.152196  
     265A      1.155258   266A      1.159927   267A      1.164707  
     268A      1.167505   269A      1.172503   270A      1.173633  
     271A      1.184228   272A      1.188837   273A      1.191021  
     274A      1.193035   275A      1.197291   276A      1.202268  
     277A      1.207809   278A      1.218297   279A      1.224123  
     280A      1.237004   281A      1.237738   282A      1.242325  
     283A      1.250159   284A      1.258786   285A      1.266367  
     286A      1.272110   287A      1.275141   288A      1.285382  
     289A      1.289915   290A      1.295923   291A      1.302563  
     292A      1.309696   293A      1.314420   294A      1.316144  
     295A      1.326138   296A      1.337258   297A      1.339098  
     298A      1.348630   299A      1.359461   300A      1.367788  
     301A      1.372823   302A      1.378848   303A      1.384212  
     304A      1.388221   305A      1.398550   306A      1.403225  
     307A      1.418659   308A      1.420915   309A      1.423494  
     310A      1.434384   311A      1.441588   312A      1.442262  
     313A      1.452198   314A      1.453822   315A      1.459829  
     316A      1.477886   317A      1.486854   318A      1.489989  
     319A      1.497146   320A      1.508256   321A      1.513390  
     322A      1.522019   323A      1.532291   324A      1.543032  
     325A      1.548498   326A      1.556203   327A      1.563443  
     328A      1.574620   329A      1.580321   330A      1.589869  
     331A      1.598981   332A      1.605328   333A      1.618494  
     334A      1.620437   335A      1.625550   336A      1.633958  
     337A      1.645243   338A      1.648774   339A      1.655393  
     340A      1.665484   341A      1.674682   342A      1.685363  
     343A      1.688660   344A      1.705274   345A      1.711492  
     346A      1.713426   347A      1.719943   348A      1.732835  
     349A      1.737175   350A      1.743310   351A      1.749111  
     352A      1.751752   353A      1.756424   354A      1.761311  
     355A      1.776330   356A      1.786775   357A      1.797683  
     358A      1.803203   359A      1.804059   360A      1.814122  
     361A      1.822086   362A      1.825191   363A      1.838411  
     364A      1.844156   365A      1.848567   366A      1.862199  
     367A      1.875534   368A      1.881777   369A      1.884534  
     370A      1.900722   371A      1.904732   372A      1.912315  
     373A      1.922225   374A      1.925934   375A      1.930041  
     376A      1.937907   377A      1.941582   378A      1.949090  
     379A      1.964331   380A      1.972867   381A      1.982944  
     382A      1.986380   383A      1.997639   384A      2.010133  
     385A      2.015222   386A      2.017343   387A      2.028132  
     388A      2.031003   389A      2.039318   390A      2.051722  
     391A      2.061214   392A      2.062724   393A      2.067988  
     394A      2.081846   395A      2.086858   396A      2.090035  
     397A      2.104367   398A      2.111980   399A      2.114707  
     400A      2.124591   401A      2.135888   402A      2.137946  
     403A      2.145641   404A      2.155697   405A      2.164680  
     406A      2.173385   407A      2.179148   408A      2.187460  
     409A      2.211188   410A      2.214412   411A      2.216197  
     412A      2.223990   413A      2.233515   414A      2.237043  
     415A      2.251227   416A      2.263917   417A      2.272195  
     418A      2.276925   419A      2.283967   420A      2.290537  
     421A      2.309384   422A      2.317685   423A      2.331080  
     424A      2.338833   425A      2.343998   426A      2.367462  
     427A      2.377006   428A      2.381774   429A      2.395788  
     430A      2.399409   431A      2.412495   432A      2.417935  
     433A      2.436165   434A      2.440657   435A      2.446158  
     436A      2.462630   437A      2.472906   438A      2.487794  
     439A      2.500831   440A      2.511180   441A      2.524800  
     442A      2.551894   443A      2.563091   444A      2.567721  
     445A      2.582290   446A      2.590897   447A      2.622477  
     448A      2.627788   449A      2.661472   450A      2.662672  
     451A      2.676677   452A      2.716999   453A      2.750378  
     454A      2.770667   455A      2.777600   456A      2.810162  
     457A      2.829299   458A      2.849347   459A      2.869676  
     460A      2.893540   461A      2.938847   462A      2.991032  
     463A      3.021754   464A      3.027549   465A      3.076845  
     466A      3.135571   467A      3.165795   468A      3.180546  
     469A      3.259617   470A      3.267625   471A      3.278915  
     472A      3.295916   473A      3.305792   474A      3.312517  
     475A      3.319143   476A      3.336531   477A      3.356213  
     478A      3.366661   479A      3.370999   480A      3.393463  
     481A      3.403000   482A      3.428075   483A      3.431909  
     484A      3.454375   485A      3.462358   486A      3.470987  
     487A      3.489261   488A      3.495628   489A      3.506314  
     490A      3.515291   491A      3.517307   492A      3.546506  
     493A      3.550651   494A      3.561474   495A      3.574348  
     496A      3.578526   497A      3.581532   498A      3.587997  
     499A      3.593442   500A      3.599779   501A      3.614166  
     502A      3.623363   503A      3.633179   504A      3.656704  
     505A      3.666214   506A      3.674903   507A      3.676379  
     508A      3.689188   509A      3.695683   510A      3.699189  
     511A      3.702041   512A      3.711174   513A      3.718449  
     514A      3.734744   515A      3.743277   516A      3.745877  
     517A      3.758570   518A      3.768249   519A      3.781391  
     520A      3.788409   521A      3.800198   522A      3.805530  
     523A      3.807568   524A      3.812584   525A      3.817448  
     526A      3.846717   527A      3.860915   528A      3.862152  
     529A      3.883054   530A      3.888024   531A      3.892863  
     532A      3.907187   533A      3.921731   534A      3.923948  
     535A      3.927828   536A      3.941328   537A      3.952757  
     538A      3.954575   539A      3.962887   540A      3.975277  
     541A      3.983032   542A      3.989520   543A      3.995465  
     544A      4.001171   545A      4.005750   546A      4.009830  
     547A      4.027053   548A      4.040194   549A      4.044696  
     550A      4.055362   551A      4.062172   552A      4.067643  
     553A      4.076092   554A      4.084650   555A      4.092193  
     556A      4.101706   557A      4.111894   558A      4.120057  
     559A      4.126125   560A      4.149125   561A      4.150835  
     562A      4.170606   563A      4.177774   564A      4.185498  
     565A      4.198016   566A      4.205743   567A      4.216953  
     568A      4.219801   569A      4.226447   570A      4.229149  
     571A      4.246310   572A      4.260888   573A      4.262845  
     574A      4.274464   575A      4.286764   576A      4.290852  
     577A      4.298078   578A      4.317011   579A      4.323643  
     580A      4.334606   581A      4.350055   582A      4.363565  
     583A      4.371346   584A      4.380481   585A      4.384930  
     586A      4.399736   587A      4.412993   588A      4.426666  
     589A      4.431109   590A      4.442551   591A      4.457069  
     592A      4.460696   593A      4.476282   594A      4.477138  
     595A      4.481998   596A      4.489412   597A      4.491982  
     598A      4.503827   599A      4.509114   600A      4.536704  
     601A      4.550907   602A      4.556555   603A      4.565535  
     604A      4.583243   605A      4.602484   606A      4.608745  
     607A      4.628749   608A      4.638091   609A      4.668159  
     610A      4.677653   611A      4.682561   612A      4.706204  
     613A      4.720854   614A      4.741434   615A      4.750333  
     616A      4.751513   617A      4.762651   618A      4.773460  
     619A      4.791566   620A      4.813589   621A      4.820995  
     622A      4.839821   623A      4.848748   624A      4.871699  
     625A      4.885760   626A      4.896234   627A      4.912488  
     628A      4.916452   629A      4.922636   630A      4.928680  
     631A      4.954510   632A      4.956634   633A      4.982873  
     634A      4.985521   635A      4.999070   636A      5.005948  
     637A      5.009710   638A      5.018369   639A      5.029766  
     640A      5.049439   641A      5.061936   642A      5.084070  
     643A      5.087775   644A      5.103465   645A      5.115839  
     646A      5.119713   647A      5.134209   648A      5.148510  
     649A      5.167188   650A      5.173602   651A      5.190603  
     652A      5.197809   653A      5.202260   654A      5.204660  
     655A      5.215758   656A      5.232794   657A      5.256217  
     658A      5.263380   659A      5.287658   660A      5.307861  
     661A      5.328738   662A      5.333932   663A      5.344041  
     664A      5.362348   665A      5.378059   666A      5.387749  
     667A      5.428134   668A      5.451251   669A      5.453306  
     670A      5.471671   671A      5.487746   672A      5.501557  
     673A      5.517897   674A      5.529229   675A      5.534380  
     676A      5.565470   677A      5.572888   678A      5.599675  
     679A      5.614651   680A      5.646811   681A      5.666908  
     682A      5.689551   683A      5.694214   684A      5.717818  
     685A      5.729491   686A      5.744632   687A      5.759844  
     688A      5.780737   689A      5.793624   690A      5.803693  
     691A      5.824701   692A      5.854013   693A      5.872065  
     694A      5.948044   695A      5.968926   696A      6.019020  
     697A      6.076492   698A      6.099516   699A      6.116354  
     700A      6.143993   701A      6.177732   702A      6.181979  
     703A      6.207992   704A      6.238613   705A      6.277788  
     706A      6.300314   707A      6.316558   708A      6.373139  
     709A      6.377414   710A      6.435921   711A      6.459642  
     712A      6.507542   713A      6.541197   714A      6.594678  
     715A      6.607196   716A      6.611229   717A      6.682406  
     718A      6.734136   719A      6.774782   720A      6.787465  
     721A      6.848937   722A      6.862445   723A      6.926037  
     724A      6.969207   725A      7.071660   726A      7.218685  
     727A     16.015576   728A     16.544150   729A     17.532279  
     730A     17.909400   731A     17.938510   732A     18.358203  
     733A     19.110094   734A     20.047419   735A     20.569884  
     736A     21.430275  

    Final Occupation by Irrep:
              A 
    DOCC [    36 ]

  @DF-RHF Final Energy:  -385.75646520884294

   => Energetics <=

    Nuclear Repulsion Energy =            481.1305871215068919
    One-Electron Energy =               -1474.4440704717590052
    Two-Electron Energy =                 607.5570181414092303
    Total Energy =                       -385.7564652088428829

Computation Completed

*** tstop() called on c419-034.stampede2.tacc.utexas.edu at Sun Feb 28 20:34:27 2021
Module time:
	user time   =     761.93 seconds =      12.70 minutes
	system time =      48.13 seconds =       0.80 minutes
	total time  =         43 seconds =       0.72 minutes
Total time:
	user time   =     761.93 seconds =      12.70 minutes
	system time =      48.13 seconds =       0.80 minutes
	total time  =         43 seconds =       0.72 minutes
   => Loading Basis Set <=

    Name: (AUG-CC-PVTZ AUX)
    Role: RIFIT
    Keyword: DF_BASIS_MP2
    atoms 1-10  entry C          line   148 file /home1/07844/xy3866/miniconda3/envs/p4env/share/psi4/basis/aug-cc-pvtz-ri.gbs 
    atoms 11-22 entry H          line    30 file /home1/07844/xy3866/miniconda3/envs/p4env/share/psi4/basis/aug-cc-pvtz-ri.gbs 


*** tstart() called on c419-034.stampede2.tacc.utexas.edu
*** at Sun Feb 28 20:34:28 2021


  //>>>>>>>>>>>>>>>>>>>>>>>>>>>>>>>>>>>//
  //               DFMP2               //
  //<<<<<<<<<<<<<<<<<<<<<<<<<<<<<<<<<<<//

	 --------------------------------------------------------
	                          DF-MP2                         
	      2nd-Order Density-Fitted Moller-Plesset Theory     
	              RMP2 Wavefunction,  32 Threads             
	                                                         
	        Rob Parrish, Justin Turney, Andy Simmonett,      
	           Ed Hohenstein, and C. David Sherrill          
	 --------------------------------------------------------

   => Auxiliary Basis Set <=

  Basis Set: (AUG-CC-PVTZ AUX)
    Blend: AUG-CC-PVTZ-RI
    Number of shells: 448
    Number of basis functions: 1612
    Number of Cartesian functions: 2020
    Spherical Harmonics?: true
    Max angular momentum: 4

	 --------------------------------------------------------
	                 NBF =   736, NAUX =  1612
	 --------------------------------------------------------
	   CLASS    FOCC     OCC    AOCC    AVIR     VIR    FVIR
	   PAIRS       0      36      36     700     700       0
	 --------------------------------------------------------

  DFHelper Memory: AOs need 6.175 GiB; user supplied 22.352 GiB. Using in-core AOs.


         ------------------------------------------------------------
                                     CPHF                           
                                  Rob Parrish                       
         ------------------------------------------------------------

  ==> Geometry <==

    Molecular point group: c1
    Full point group: C1

    Geometry (in Angstrom), charge = 0, multiplicity = 1:

       Center              X                  Y                   Z               Mass       
    ------------   -----------------  -----------------  -----------------  -----------------
         C           -2.123935112969     0.008838731348    -0.517981824744    12.000000000000
         C           -3.027231112969     0.761081731348     0.424479175256    12.000000000000
         C           -3.027231112969    -0.743400268652     0.424482175256    12.000000000000
         C           -0.647286112969     0.008838731348    -0.299838824744    12.000000000000
         C            0.064845887031     1.211829731348    -0.210553824744    12.000000000000
         C            0.064845887031    -1.194151268652    -0.210553824744    12.000000000000
         C            1.448838887031     1.210165731348    -0.036579824744    12.000000000000
         C            1.445593987031    -1.289792568652    -0.037070424744    12.000000000000
         C            2.163944887031     0.008839731348     0.051349175256    12.000000000000
         C            3.652771887031     0.008840731348     0.283558175256    12.000000000000
         H           -2.434819112969     0.008835731348    -1.562334824744     1.007825032230
         H           -3.888215112969     1.278764731348     0.013731175256     1.007825032230
         H           -2.557216112969     1.262296731348     1.264704175256     1.007825032230
         H           -2.557216112969    -1.244613268652     1.264709175256     1.007825032230
         H           -3.888216112969    -1.261084268652     0.013737175256     1.007825032230
         H           -0.474199112969     2.155264731348    -0.279113824744     1.007825032230
         H           -0.474198112969    -2.137587268652    -0.279113824744     1.007825032230
         H            1.983387887031     2.157074731348     0.028739175256     1.007825032230
         H            1.983388887031    -2.139395268652     0.028739175256     1.007825032230
         H            4.119744887031    -0.876510268652    -0.157538824744     1.007825032230
         H            4.119744887031     0.894191731348    -0.157537824744     1.007825032230
         H            3.887329887031     0.008839731348     1.353805175256     1.007825032230

  Nuclear repulsion =  481.130587121506892
  Reference energy  = -385.756465208842940

  ==> Basis Set <==

  Basis Set: AUG-CC-PVTZ
    Blend: AUG-CC-PVTZ
    Number of shells: 248
    Number of basis functions: 736
    Number of Cartesian functions: 850
    Spherical Harmonics?: true
    Max angular momentum: 3

  ==> CGRSolver (by Rob Parrish) <==

   Number of roots    =         1
   Preconditioning    =    JACOBI
   Convergence cutoff =     1E-06
   Maximum iterations =       100

  ==> CPHFRHamiltonian (by Rob Parrish) <== 

  ==> MemDFJK: Density-Fitted J/K Matrices <==

    J tasked:                   Yes
    K tasked:                   Yes
    wK tasked:                   No
    OpenMP threads:              32
    Memory [MiB]:             22888
    Algorithm:                 Core
    Schwarz Cutoff:           1E-12
    Mask sparsity (%):       7.8967
    Fitting Condition:        1E-10

   => Auxiliary Basis Set <=

  Basis Set: (AUG-CC-PVTZ AUX)
    Blend: AUG-CC-PVTZ-JKFIT
    Number of shells: 468
    Number of basis functions: 1592
    Number of Cartesian functions: 1970
    Spherical Harmonics?: true
    Max angular momentum: 4

  ==> CPHF Iterations <==

  => Iterations <=

             Iter  Converged  Remaining    Residual
  CGR           1          0          1   7.813E-02
  CGR           2          0          1   1.764E-02
  CGR           3          0          1   1.019E-02
  CGR           4          0          1   5.190E-03
  CGR           5          0          1   2.000E-03
  CGR           6          0          1   7.780E-04
  CGR           7          0          1   2.422E-04
  CGR           8          0          1   8.928E-05
  CGR           9          0          1   4.425E-05
  CGR          10          0          1   1.874E-05
  CGR          11          0          1   5.114E-06
  CGR          12          0          1   1.619E-06
  CGR          13          1          0   5.187E-07

    CGRSolver converged.

	-----------------------------------------------------------
	 ==================> DF-MP2 Energies <==================== 
	-----------------------------------------------------------
	 Reference Energy          =    -385.7564652088429398 [Eh]
	 Singles Energy            =      -0.0000000000000000 [Eh]
	 Same-Spin Energy          =      -0.4317205188594527 [Eh]
	 Opposite-Spin Energy      =      -1.4125348422033634 [Eh]
	 Correlation Energy        =      -1.8442553610628161 [Eh]
	 Total Energy              =    -387.6007205699057749 [Eh]
	-----------------------------------------------------------
	 ================> DF-SCS-MP2 Energies <================== 
	-----------------------------------------------------------
	 SCS Same-Spin Scale       =       0.3333333333333333 [-]
	 SCS Opposite-Spin Scale   =       1.2000000000000000 [-]
	 SCS Same-Spin Energy      =      -0.1439068396198175 [Eh]
	 SCS Opposite-Spin Energy  =      -1.6950418106440361 [Eh]
	 SCS Correlation Energy    =      -1.8389486502638537 [Eh]
	 SCS Total Energy          =    -387.5954138591067704 [Eh]
	-----------------------------------------------------------



Properties will be evaluated at   0.000000,   0.000000,  -0.000000 [a0]

Properties computed using the MP2 density matrix

  Nuclear Dipole Moment: [e a0]
     X:    -0.1692      Y:     0.0994      Z:     1.4367

  Electronic Dipole Moment: [e a0]
     X:     0.2234      Y:    -0.1044      Z:    -1.4211

  Dipole Moment: [e a0]
     X:     0.0542      Y:    -0.0050      Z:     0.0156     Total:     0.0566

  Dipole Moment: [D]
     X:     0.1377      Y:    -0.0126      Z:     0.0397     Total:     0.1439


*** tstop() called on c419-034.stampede2.tacc.utexas.edu at Sun Feb 28 20:38:44 2021
Module time:
	user time   =    2431.63 seconds =      40.53 minutes
	system time =      71.66 seconds =       1.19 minutes
	total time  =        256 seconds =       4.27 minutes
Total time:
	user time   =    3194.65 seconds =      53.24 minutes
	system time =     119.81 seconds =       2.00 minutes
	total time  =        300 seconds =       5.00 minutes

    Psi4 stopped on: Sunday, 28 February 2021 08:38PM
    Psi4 wall time for execution: 0:05:00.74

*** Psi4 exiting successfully. Buy a developer a beer!
