
    -----------------------------------------------------------------------
          Psi4: An Open-Source Ab Initio Electronic Structure Package
                               Psi4 1.4a3.dev225 

                         Git: Rev {master} 7105e37 


    D. G. A. Smith, L. A. Burns, A. C. Simmonett, R. M. Parrish,
    M. C. Schieber, R. Galvelis, P. Kraus, H. Kruse, R. Di Remigio,
    A. Alenaizan, A. M. James, S. Lehtola, J. P. Misiewicz, M. Scheurer,
    R. A. Shaw, J. B. Schriber, Y. Xie, Z. L. Glick, D. A. Sirianni,
    J. S. O'Brien, J. M. Waldrop, A. Kumar, E. G. Hohenstein,
    B. P. Pritchard, B. R. Brooks, H. F. Schaefer III, A. Yu. Sokolov,
    K. Patkowski, A. E. DePrince III, U. Bozkaya, R. A. King,
    F. A. Evangelista, J. M. Turney, T. D. Crawford, C. D. Sherrill,
    J. Chem. Phys. 152(18) 184108 (2020). https://doi.org/10.1063/5.0006002

                            Additional Code Authors
    E. T. Seidl, C. L. Janssen, E. F. Valeev, M. L. Leininger,
    J. F. Gonthier, R. M. Richard, H. R. McAlexander, M. Saitow, X. Wang,
    P. Verma, and M. H. Lechner

             Previous Authors, Complete List of Code Contributors,
                       and Citations for Specific Modules
    https://github.com/psi4/psi4/blob/master/codemeta.json
    https://github.com/psi4/psi4/graphs/contributors
    http://psicode.org/psi4manual/master/introduction.html#citing-psifour

    -----------------------------------------------------------------------


    Psi4 started on: Wednesday, 31 March 2021 12:05PM

    Process ID: 53632
    Host:       c452-062.stampede2.tacc.utexas.edu
    PSIDATADIR: /home1/07844/xy3866/miniconda3/envs/p4env/share/psi4
    Memory:     500.0 MiB
    Threads:    8
    
  ==> Input File <==

--------------------------------------------------------------------------
#psi4
#
memory 32 gb

molecule  {
0 1
  C       -2.1229620    -0.0000010    -0.5285820
  C       -3.0262580     0.7522420     0.4138790
  C       -3.0262580    -0.7522400     0.4138820
  C       -0.6463130    -0.0000010    -0.3104390
  C        0.0658190     1.2029900    -0.2211540
  C        0.0658190    -1.2029910    -0.2211540
  C        1.4498120     1.2013260    -0.0471800
  C        1.4498130    -1.2013260    -0.0471800
  C        2.1649180     0.0000000     0.0407490
  C        3.6537450     0.0000010     0.2729580
  H       -2.4338460    -0.0000040    -1.5729350
  H       -3.8475784     1.2460765     0.0220532
  H       -2.5562430     1.2534570     1.2541040
  H       -2.5562430    -1.2534530     1.2541090
  H       -3.8872430    -1.2699240     0.0031370
  H       -0.4732260     2.1464250    -0.2897140
  H       -0.4732250    -2.1464270    -0.2897140
  H        1.9843610     2.1482350     0.0181390
  H        1.9843620    -2.1482350     0.0181390
  H        4.1207180    -0.8853500    -0.1681390
  H        4.1207180     0.8853520    -0.1681380
  H        3.8883030     0.0000000     1.3432050
units angstrom
no_reorient  #important for SAPT in psi4, default
symmetry c1  #important for SAPT in psi4, default
}

set PROPERTIES_ORIGIN ["COM"]
properties('MP2/aug-cc-pvtz', properties = ['dipole'])
--------------------------------------------------------------------------

  Memory set to  29.802 GiB by Python driver.
    SCF Algorithm Type (re)set to DF.

*** tstart() called on c452-062.stampede2.tacc.utexas.edu
*** at Wed Mar 31 12:05:33 2021

   => Loading Basis Set <=

    Name: AUG-CC-PVTZ
    Role: ORBITAL
    Keyword: BASIS
    atoms 1-10  entry C          line   239 file /home1/07844/xy3866/miniconda3/envs/p4env/share/psi4/basis/aug-cc-pvtz.gbs 
    atoms 11-22 entry H          line    40 file /home1/07844/xy3866/miniconda3/envs/p4env/share/psi4/basis/aug-cc-pvtz.gbs 


         ---------------------------------------------------------
                                   SCF
               by Justin Turney, Rob Parrish, Andy Simmonett
                          and Daniel G. A. Smith
                              RHF Reference
                        8 Threads,  30517 MiB Core
         ---------------------------------------------------------

  ==> Geometry <==

    Molecular point group: c1
    Full point group: C1

    Geometry (in Angstrom), charge = 0, multiplicity = 1:

       Center              X                  Y                   Z               Mass       
    ------------   -----------------  -----------------  -----------------  -----------------
         C           -2.124532602851     0.000180947141    -0.518170762058    12.000000000000
         C           -3.027828602851     0.752423947141     0.424290237942    12.000000000000
         C           -3.027828602851    -0.752058052859     0.424293237942    12.000000000000
         C           -0.647883602851     0.000180947141    -0.300027762058    12.000000000000
         C            0.064248397149     1.203171947141    -0.210742762058    12.000000000000
         C            0.064248397149    -1.202809052859    -0.210742762058    12.000000000000
         C            1.448241397149     1.201507947141    -0.036768762058    12.000000000000
         C            1.448242397149    -1.201144052859    -0.036768762058    12.000000000000
         C            2.163347397149     0.000181947141     0.051160237942    12.000000000000
         C            3.652174397149     0.000182947141     0.283369237942    12.000000000000
         H           -2.435416602851     0.000177947141    -1.562523762058     1.007825032230
         H           -3.849149002851     1.246258447141     0.032464437942     1.007825032230
         H           -2.557813602851     1.253638947141     1.264515237942     1.007825032230
         H           -2.557813602851    -1.253271052859     1.264520237942     1.007825032230
         H           -3.888813602851    -1.269742052859     0.013548237942     1.007825032230
         H           -0.474796602851     2.146606947141    -0.279302762058     1.007825032230
         H           -0.474795602851    -2.146245052859    -0.279302762058     1.007825032230
         H            1.982790397149     2.148416947141     0.028550237942     1.007825032230
         H            1.982791397149    -2.148053052859     0.028550237942     1.007825032230
         H            4.119147397149    -0.885168052859    -0.157727762058     1.007825032230
         H            4.119147397149     0.885533947141    -0.157726762058     1.007825032230
         H            3.886732397149     0.000181947141     1.353616237942     1.007825032230

  Running in c1 symmetry.

  Rotational constants: A =      0.13177  B =      0.02511  C =      0.02211 [cm^-1]
  Rotational constants: A =   3950.51038  B =    752.63065  C =    662.78680 [MHz]
  Nuclear repulsion =  482.871463248082534

  Charge       = 0
  Multiplicity = 1
  Electrons    = 72
  Nalpha       = 36
  Nbeta        = 36

  ==> Algorithm <==

  SCF Algorithm Type is DF.
  DIIS enabled.
  MOM disabled.
  Fractional occupation disabled.
  Guess Type is SAD.
  Energy threshold   = 1.00e-10
  Density threshold  = 1.00e-10
  Integral threshold = 1.00e-12

  ==> Primary Basis <==

  Basis Set: AUG-CC-PVTZ
    Blend: AUG-CC-PVTZ
    Number of shells: 248
    Number of basis functions: 736
    Number of Cartesian functions: 850
    Spherical Harmonics?: true
    Max angular momentum: 3

   => Loading Basis Set <=

    Name: (AUG-CC-PVTZ AUX)
    Role: JKFIT
    Keyword: DF_BASIS_SCF
    atoms 1-10  entry C          line   162 file /home1/07844/xy3866/miniconda3/envs/p4env/share/psi4/basis/aug-cc-pvtz-jkfit.gbs 
    atoms 11-22 entry H          line    70 file /home1/07844/xy3866/miniconda3/envs/p4env/share/psi4/basis/aug-cc-pvtz-jkfit.gbs 

  ==> Integral Setup <==

  DFHelper Memory: AOs need 5.820 GiB; user supplied 22.352 GiB. Using in-core AOs.

  ==> MemDFJK: Density-Fitted J/K Matrices <==

    J tasked:                   Yes
    K tasked:                   Yes
    wK tasked:                   No
    OpenMP threads:               8
    Memory [MiB]:             22888
    Algorithm:                 Core
    Schwarz Cutoff:           1E-12
    Mask sparsity (%):      11.9192
    Fitting Condition:        1E-10

   => Auxiliary Basis Set <=

  Basis Set: (AUG-CC-PVTZ AUX)
    Blend: AUG-CC-PVTZ-JKFIT
    Number of shells: 468
    Number of basis functions: 1592
    Number of Cartesian functions: 1970
    Spherical Harmonics?: true
    Max angular momentum: 4

  Minimum eigenvalue in the overlap matrix is 4.5096632604E-07.
  Reciprocal condition number of the overlap matrix is 2.1917003344E-08.
    Using symmetric orthogonalization.

  ==> Pre-Iterations <==

  SCF Guess: Superposition of Atomic Densities via on-the-fly atomic UHF (no occupation information).

   -------------------------
    Irrep   Nso     Nmo    
   -------------------------
     A        736     736 
   -------------------------
    Total     736     736
   -------------------------

  ==> Iterations <==

                           Total Energy        Delta E     RMS |[F,P]|

   @DF-RHF iter SAD:  -385.46258766529576   -3.85463e+02   0.00000e+00 
   @DF-RHF iter   1:  -385.44141223855007    2.11754e-02   9.78370e-04 DIIS
   @DF-RHF iter   2:  -385.71004394155148   -2.68632e-01   4.42125e-04 DIIS
   @DF-RHF iter   3:  -385.76500415799438   -5.49602e-02   8.66838e-05 DIIS
   @DF-RHF iter   4:  -385.76836023097269   -3.35607e-03   2.49326e-05 DIIS
   @DF-RHF iter   5:  -385.76857738060954   -2.17150e-04   7.02237e-06 DIIS
   @DF-RHF iter   6:  -385.76859547110797   -1.80905e-05   2.49763e-06 DIIS
   @DF-RHF iter   7:  -385.76859778974483   -2.31864e-06   5.96860e-07 DIIS
   @DF-RHF iter   8:  -385.76859798362688   -1.93882e-07   1.90137e-07 DIIS
   @DF-RHF iter   9:  -385.76859800462603   -2.09992e-08   6.49562e-08 DIIS
   @DF-RHF iter  10:  -385.76859800783785   -3.21182e-09   2.58851e-08 DIIS
   @DF-RHF iter  11:  -385.76859800868897   -8.51117e-10   1.10981e-08 DIIS
   @DF-RHF iter  12:  -385.76859800891367   -2.24702e-10   5.47210e-09 DIIS
   @DF-RHF iter  13:  -385.76859800895147   -3.78009e-11   1.87520e-09 DIIS
   @DF-RHF iter  14:  -385.76859800895636   -4.88853e-12   5.19111e-10 DIIS
   @DF-RHF iter  15:  -385.76859800895676   -3.97904e-13   2.15316e-10 DIIS
   @DF-RHF iter  16:  -385.76859800895744   -6.82121e-13   6.12930e-11 DIIS
  Energy and wave function converged.


  ==> Post-Iterations <==

    Orbital Energies [Eh]
    ---------------------

    Doubly Occupied:                                                      

       1A    -11.237772     2A    -11.233907     3A    -11.232679  
       4A    -11.228994     5A    -11.228831     6A    -11.227309  
       7A    -11.227236     8A    -11.224001     9A    -11.222353  
      10A    -11.218390    11A     -1.163407    12A     -1.130410  
      13A     -1.039173    14A     -1.006586    15A     -0.936757  
      16A     -0.836649    17A     -0.831955    18A     -0.811285  
      19A     -0.765896    20A     -0.687551    21A     -0.656420  
      22A     -0.633720    23A     -0.626508    24A     -0.599140  
      25A     -0.576901    26A     -0.573059    27A     -0.538471  
      28A     -0.529269    29A     -0.515750    30A     -0.489789  
      31A     -0.483566    32A     -0.476220    33A     -0.424065  
      34A     -0.412907    35A     -0.331349    36A     -0.312097  

    Virtual:                                                              

      37A      0.029042    38A      0.031235    39A      0.033408  
      40A      0.039019    41A      0.043359    42A      0.044965  
      43A      0.050517    44A      0.057788    45A      0.061115  
      46A      0.063106    47A      0.063362    48A      0.081823  
      49A      0.091453    50A      0.096908    51A      0.103504  
      52A      0.106925    53A      0.112391    54A      0.113150  
      55A      0.117218    56A      0.119812    57A      0.122240  
      58A      0.123687    59A      0.129139    60A      0.135107  
      61A      0.138093    62A      0.139733    63A      0.145731  
      64A      0.146093    65A      0.149322    66A      0.149476  
      67A      0.152837    68A      0.155799    69A      0.160771  
      70A      0.165784    71A      0.167390    72A      0.168810  
      73A      0.175465    74A      0.176010    75A      0.187587  
      76A      0.194477    77A      0.197655    78A      0.206624  
      79A      0.208667    80A      0.222140    81A      0.224908  
      82A      0.226149    83A      0.233239    84A      0.245636  
      85A      0.252874    86A      0.255801    87A      0.260824  
      88A      0.262949    89A      0.267509    90A      0.274552  
      91A      0.277716    92A      0.281855    93A      0.290746  
      94A      0.291346    95A      0.295301    96A      0.299058  
      97A      0.311576    98A      0.312024    99A      0.315361  
     100A      0.323399   101A      0.324958   102A      0.325932  
     103A      0.335561   104A      0.339525   105A      0.343886  
     106A      0.347922   107A      0.352843   108A      0.354474  
     109A      0.357655   110A      0.361787   111A      0.367561  
     112A      0.369768   113A      0.378018   114A      0.385539  
     115A      0.388136   116A      0.388475   117A      0.393854  
     118A      0.397288   119A      0.399847   120A      0.407428  
     121A      0.408382   122A      0.416576   123A      0.423606  
     124A      0.424651   125A      0.432582   126A      0.436145  
     127A      0.438374   128A      0.444685   129A      0.446254  
     130A      0.449052   131A      0.457148   132A      0.459812  
     133A      0.461326   134A      0.467318   135A      0.468700  
     136A      0.470604   137A      0.476642   138A      0.477184  
     139A      0.482899   140A      0.483421   141A      0.489380  
     142A      0.493948   143A      0.500568   144A      0.502480  
     145A      0.505809   146A      0.513520   147A      0.516354  
     148A      0.520091   149A      0.521615   150A      0.524181  
     151A      0.526669   152A      0.532731   153A      0.534466  
     154A      0.534692   155A      0.544641   156A      0.548392  
     157A      0.551506   158A      0.555818   159A      0.563189  
     160A      0.563844   161A      0.569139   162A      0.573128  
     163A      0.576554   164A      0.577947   165A      0.583665  
     166A      0.585969   167A      0.591571   168A      0.595112  
     169A      0.597499   170A      0.606032   171A      0.616340  
     172A      0.623946   173A      0.628423   174A      0.635083  
     175A      0.639340   176A      0.643058   177A      0.648412  
     178A      0.660790   179A      0.667109   180A      0.672404  
     181A      0.681684   182A      0.682039   183A      0.694536  
     184A      0.695485   185A      0.705063   186A      0.714487  
     187A      0.720186   188A      0.732264   189A      0.738161  
     190A      0.744016   191A      0.758031   192A      0.766544  
     193A      0.767725   194A      0.777039   195A      0.781501  
     196A      0.782157   197A      0.803100   198A      0.806380  
     199A      0.807526   200A      0.816646   201A      0.826611  
     202A      0.845440   203A      0.849764   204A      0.855323  
     205A      0.857292   206A      0.866990   207A      0.874838  
     208A      0.876553   209A      0.879678   210A      0.882410  
     211A      0.886816   212A      0.890651   213A      0.892325  
     214A      0.896450   215A      0.907769   216A      0.909361  
     217A      0.921064   218A      0.924327   219A      0.926008  
     220A      0.929485   221A      0.933532   222A      0.935849  
     223A      0.940435   224A      0.947407   225A      0.952086  
     226A      0.952456   227A      0.965403   228A      0.972960  
     229A      0.978500   230A      0.979304   231A      0.981091  
     232A      0.987109   233A      0.988812   234A      0.996344  
     235A      0.998970   236A      1.004395   237A      1.009174  
     238A      1.011528   239A      1.016118   240A      1.021593  
     241A      1.027690   242A      1.033049   243A      1.033927  
     244A      1.040127   245A      1.043950   246A      1.052810  
     247A      1.065691   248A      1.066109   249A      1.068537  
     250A      1.077837   251A      1.079826   252A      1.082934  
     253A      1.087916   254A      1.095439   255A      1.096340  
     256A      1.107482   257A      1.108928   258A      1.116279  
     259A      1.124338   260A      1.125317   261A      1.132334  
     262A      1.137788   263A      1.148855   264A      1.153875  
     265A      1.155678   266A      1.162247   267A      1.166350  
     268A      1.167199   269A      1.173631   270A      1.174871  
     271A      1.189476   272A      1.192446   273A      1.193379  
     274A      1.194527   275A      1.200550   276A      1.202948  
     277A      1.209914   278A      1.220457   279A      1.221416  
     280A      1.237143   281A      1.238835   282A      1.244633  
     283A      1.254378   284A      1.262467   285A      1.269847  
     286A      1.272720   287A      1.278150   288A      1.281113  
     289A      1.288384   290A      1.297709   291A      1.303911  
     292A      1.311233   293A      1.312890   294A      1.333652  
     295A      1.335028   296A      1.340524   297A      1.342541  
     298A      1.351006   299A      1.360173   300A      1.367470  
     301A      1.374839   302A      1.376936   303A      1.386114  
     304A      1.388548   305A      1.398712   306A      1.405826  
     307A      1.416148   308A      1.416939   309A      1.421059  
     310A      1.436056   311A      1.445384   312A      1.446910  
     313A      1.453644   314A      1.454473   315A      1.462880  
     316A      1.472134   317A      1.485845   318A      1.495531  
     319A      1.502364   320A      1.504739   321A      1.516733  
     322A      1.521342   323A      1.533783   324A      1.546341  
     325A      1.548248   326A      1.558906   327A      1.568708  
     328A      1.578355   329A      1.583020   330A      1.587674  
     331A      1.596874   332A      1.605500   333A      1.620160  
     334A      1.623338   335A      1.630387   336A      1.630840  
     337A      1.647686   338A      1.651593   339A      1.657616  
     340A      1.663554   341A      1.673102   342A      1.686666  
     343A      1.688986   344A      1.708542   345A      1.712517  
     346A      1.715515   347A      1.718372   348A      1.735173  
     349A      1.741019   350A      1.747268   351A      1.748987  
     352A      1.752702   353A      1.757217   354A      1.763478  
     355A      1.777844   356A      1.791066   357A      1.800769  
     358A      1.805181   359A      1.816367   360A      1.817645  
     361A      1.827467   362A      1.827745   363A      1.843638  
     364A      1.854077   365A      1.856498   366A      1.864592  
     367A      1.872416   368A      1.879381   369A      1.890473  
     370A      1.896711   371A      1.903911   372A      1.916903  
     373A      1.918765   374A      1.925515   375A      1.930080  
     376A      1.938674   377A      1.943767   378A      1.950148  
     379A      1.966744   380A      1.969069   381A      1.985027  
     382A      1.987983   383A      1.996247   384A      2.010405  
     385A      2.015337   386A      2.016554   387A      2.030245  
     388A      2.032296   389A      2.041111   390A      2.054235  
     391A      2.062509   392A      2.066361   393A      2.078626  
     394A      2.089586   395A      2.090845   396A      2.100050  
     397A      2.104998   398A      2.110928   399A      2.116755  
     400A      2.130162   401A      2.133427   402A      2.136476  
     403A      2.143623   404A      2.162798   405A      2.167076  
     406A      2.180312   407A      2.186028   408A      2.189614  
     409A      2.208089   410A      2.214954   411A      2.221435  
     412A      2.229501   413A      2.233477   414A      2.236780  
     415A      2.253583   416A      2.261961   417A      2.280749  
     418A      2.283621   419A      2.289862   420A      2.297257  
     421A      2.305038   422A      2.315812   423A      2.327655  
     424A      2.348931   425A      2.350819   426A      2.367838  
     427A      2.376897   428A      2.389630   429A      2.400626  
     430A      2.407050   431A      2.413998   432A      2.418127  
     433A      2.447496   434A      2.451630   435A      2.453841  
     436A      2.462386   437A      2.470564   438A      2.486094  
     439A      2.494564   440A      2.515734   441A      2.532573  
     442A      2.554266   443A      2.564631   444A      2.572057  
     445A      2.582562   446A      2.599196   447A      2.625809  
     448A      2.646917   449A      2.664086   450A      2.672354  
     451A      2.695700   452A      2.714645   453A      2.755429  
     454A      2.790835   455A      2.799467   456A      2.813122  
     457A      2.843722   458A      2.859145   459A      2.886587  
     460A      2.898389   461A      2.941978   462A      2.998504  
     463A      3.029112   464A      3.032966   465A      3.083561  
     466A      3.150189   467A      3.177374   468A      3.196016  
     469A      3.256990   470A      3.280985   471A      3.286832  
     472A      3.296550   473A      3.304822   474A      3.306899  
     475A      3.326959   476A      3.335885   477A      3.363087  
     478A      3.369681   479A      3.383246   480A      3.400383  
     481A      3.418624   482A      3.436292   483A      3.442394  
     484A      3.465771   485A      3.467235   486A      3.475647  
     487A      3.487259   488A      3.499295   489A      3.515756  
     490A      3.516719   491A      3.525404   492A      3.549981  
     493A      3.561506   494A      3.564123   495A      3.573790  
     496A      3.581754   497A      3.582105   498A      3.593152  
     499A      3.596074   500A      3.598857   501A      3.617797  
     502A      3.626028   503A      3.634071   504A      3.651604  
     505A      3.670040   506A      3.671576   507A      3.679270  
     508A      3.687266   509A      3.694581   510A      3.705113  
     511A      3.707263   512A      3.709864   513A      3.715681  
     514A      3.731909   515A      3.741875   516A      3.752302  
     517A      3.770705   518A      3.770905   519A      3.791520  
     520A      3.797950   521A      3.801332   522A      3.813099  
     523A      3.816230   524A      3.816963   525A      3.821952  
     526A      3.854305   527A      3.869913   528A      3.872483  
     529A      3.892322   530A      3.897444   531A      3.903692  
     532A      3.906278   533A      3.913388   534A      3.923992  
     535A      3.939243   536A      3.947236   537A      3.958902  
     538A      3.961890   539A      3.966150   540A      3.981127  
     541A      3.983995   542A      3.994278   543A      3.995675  
     544A      3.998789   545A      4.004824   546A      4.015783  
     547A      4.033355   548A      4.042139   549A      4.046468  
     550A      4.056740   551A      4.058992   552A      4.070574  
     553A      4.077301   554A      4.081177   555A      4.095935  
     556A      4.106150   557A      4.116833   558A      4.125353  
     559A      4.129849   560A      4.158154   561A      4.162187  
     562A      4.181778   563A      4.186228   564A      4.192375  
     565A      4.208484   566A      4.209486   567A      4.223529  
     568A      4.226615   569A      4.229288   570A      4.238013  
     571A      4.263591   572A      4.274001   573A      4.274661  
     574A      4.278419   575A      4.292830   576A      4.299042  
     577A      4.315298   578A      4.323428   579A      4.326918  
     580A      4.345786   581A      4.349631   582A      4.363262  
     583A      4.379297   584A      4.385049   585A      4.399542  
     586A      4.406379   587A      4.430063   588A      4.433071  
     589A      4.440956   590A      4.450661   591A      4.466475  
     592A      4.472291   593A      4.479402   594A      4.482725  
     595A      4.485826   596A      4.489203   597A      4.498844  
     598A      4.503632   599A      4.521275   600A      4.552161  
     601A      4.558546   602A      4.565380   603A      4.573109  
     604A      4.578192   605A      4.605846   606A      4.614165  
     607A      4.643519   608A      4.646388   609A      4.682521  
     610A      4.685193   611A      4.696493   612A      4.723083  
     613A      4.738441   614A      4.745261   615A      4.750544  
     616A      4.755846   617A      4.762106   618A      4.768466  
     619A      4.795228   620A      4.815045   621A      4.820318  
     622A      4.839940   623A      4.851013   624A      4.884994  
     625A      4.889597   626A      4.891321   627A      4.922728  
     628A      4.930311   629A      4.932934   630A      4.937433  
     631A      4.958265   632A      4.965256   633A      4.994142  
     634A      4.999910   635A      5.006840   636A      5.011233  
     637A      5.022327   638A      5.029034   639A      5.041482  
     640A      5.055461   641A      5.071865   642A      5.091264  
     643A      5.096459   644A      5.111622   645A      5.123333  
     646A      5.130339   647A      5.134953   648A      5.145033  
     649A      5.146901   650A      5.175097   651A      5.191209  
     652A      5.200685   653A      5.204268   654A      5.214514  
     655A      5.229744   656A      5.246483   657A      5.259531  
     658A      5.268973   659A      5.289457   660A      5.297012  
     661A      5.330544   662A      5.339961   663A      5.354060  
     664A      5.371953   665A      5.387432   666A      5.389327  
     667A      5.425139   668A      5.446768   669A      5.457961  
     670A      5.467842   671A      5.470932   672A      5.498432  
     673A      5.503991   674A      5.518678   675A      5.541759  
     676A      5.558578   677A      5.588805   678A      5.600601  
     679A      5.626657   680A      5.654552   681A      5.667306  
     682A      5.694509   683A      5.708750   684A      5.727947  
     685A      5.735025   686A      5.755456   687A      5.772770  
     688A      5.780839   689A      5.796166   690A      5.817984  
     691A      5.828040   692A      5.859607   693A      5.882063  
     694A      5.962950   695A      5.991888   696A      6.006550  
     697A      6.061476   698A      6.101291   699A      6.110056  
     700A      6.145721   701A      6.169279   702A      6.190393  
     703A      6.202642   704A      6.217088   705A      6.275646  
     706A      6.312905   707A      6.324857   708A      6.377771  
     709A      6.419337   710A      6.463105   711A      6.506314  
     712A      6.526079   713A      6.549335   714A      6.593723  
     715A      6.621879   716A      6.638829   717A      6.704478  
     718A      6.739080   719A      6.778742   720A      6.794702  
     721A      6.853304   722A      6.874353   723A      6.949934  
     724A      6.984261   725A      7.089771   726A      7.264124  
     727A     16.222222   728A     16.388471   729A     17.602457  
     730A     17.896823   731A     18.262567   732A     18.331296  
     733A     19.401580   734A     20.226472   735A     20.451647  
     736A     21.451129  

    Final Occupation by Irrep:
              A 
    DOCC [    36 ]

  @DF-RHF Final Energy:  -385.76859800895744

   => Energetics <=

    Nuclear Repulsion Energy =            482.8714632480825344
    One-Electron Energy =               -1477.9393785998445310
    Two-Electron Energy =                 609.2993173428044429
    Total Energy =                       -385.7685980089574969

Computation Completed

*** tstop() called on c452-062.stampede2.tacc.utexas.edu at Wed Mar 31 12:06:52 2021
Module time:
	user time   =     481.56 seconds =       8.03 minutes
	system time =      11.27 seconds =       0.19 minutes
	total time  =         79 seconds =       1.32 minutes
Total time:
	user time   =     481.56 seconds =       8.03 minutes
	system time =      11.27 seconds =       0.19 minutes
	total time  =         79 seconds =       1.32 minutes
   => Loading Basis Set <=

    Name: (AUG-CC-PVTZ AUX)
    Role: RIFIT
    Keyword: DF_BASIS_MP2
    atoms 1-10  entry C          line   148 file /home1/07844/xy3866/miniconda3/envs/p4env/share/psi4/basis/aug-cc-pvtz-ri.gbs 
    atoms 11-22 entry H          line    30 file /home1/07844/xy3866/miniconda3/envs/p4env/share/psi4/basis/aug-cc-pvtz-ri.gbs 


*** tstart() called on c452-062.stampede2.tacc.utexas.edu
*** at Wed Mar 31 12:06:53 2021


  //>>>>>>>>>>>>>>>>>>>>>>>>>>>>>>>>>>>//
  //               DFMP2               //
  //<<<<<<<<<<<<<<<<<<<<<<<<<<<<<<<<<<<//

	 --------------------------------------------------------
	                          DF-MP2                         
	      2nd-Order Density-Fitted Moller-Plesset Theory     
	              RMP2 Wavefunction,   8 Threads             
	                                                         
	        Rob Parrish, Justin Turney, Andy Simmonett,      
	           Ed Hohenstein, and C. David Sherrill          
	 --------------------------------------------------------

   => Auxiliary Basis Set <=

  Basis Set: (AUG-CC-PVTZ AUX)
    Blend: AUG-CC-PVTZ-RI
    Number of shells: 448
    Number of basis functions: 1612
    Number of Cartesian functions: 2020
    Spherical Harmonics?: true
    Max angular momentum: 4

	 --------------------------------------------------------
	                 NBF =   736, NAUX =  1612
	 --------------------------------------------------------
	   CLASS    FOCC     OCC    AOCC    AVIR     VIR    FVIR
	   PAIRS       0      36      36     700     700       0
	 --------------------------------------------------------

  DFHelper Memory: AOs need 6.080 GiB; user supplied 22.352 GiB. Using in-core AOs.


         ------------------------------------------------------------
                                     CPHF                           
                                  Rob Parrish                       
         ------------------------------------------------------------

  ==> Geometry <==

    Molecular point group: c1
    Full point group: C1

    Geometry (in Angstrom), charge = 0, multiplicity = 1:

       Center              X                  Y                   Z               Mass       
    ------------   -----------------  -----------------  -----------------  -----------------
         C           -2.124532602851     0.000180947141    -0.518170762058    12.000000000000
         C           -3.027828602851     0.752423947141     0.424290237942    12.000000000000
         C           -3.027828602851    -0.752058052859     0.424293237942    12.000000000000
         C           -0.647883602851     0.000180947141    -0.300027762058    12.000000000000
         C            0.064248397149     1.203171947141    -0.210742762058    12.000000000000
         C            0.064248397149    -1.202809052859    -0.210742762058    12.000000000000
         C            1.448241397149     1.201507947141    -0.036768762058    12.000000000000
         C            1.448242397149    -1.201144052859    -0.036768762058    12.000000000000
         C            2.163347397149     0.000181947141     0.051160237942    12.000000000000
         C            3.652174397149     0.000182947141     0.283369237942    12.000000000000
         H           -2.435416602851     0.000177947141    -1.562523762058     1.007825032230
         H           -3.849149002851     1.246258447141     0.032464437942     1.007825032230
         H           -2.557813602851     1.253638947141     1.264515237942     1.007825032230
         H           -2.557813602851    -1.253271052859     1.264520237942     1.007825032230
         H           -3.888813602851    -1.269742052859     0.013548237942     1.007825032230
         H           -0.474796602851     2.146606947141    -0.279302762058     1.007825032230
         H           -0.474795602851    -2.146245052859    -0.279302762058     1.007825032230
         H            1.982790397149     2.148416947141     0.028550237942     1.007825032230
         H            1.982791397149    -2.148053052859     0.028550237942     1.007825032230
         H            4.119147397149    -0.885168052859    -0.157727762058     1.007825032230
         H            4.119147397149     0.885533947141    -0.157726762058     1.007825032230
         H            3.886732397149     0.000181947141     1.353616237942     1.007825032230

  Nuclear repulsion =  482.871463248082534
  Reference energy  = -385.768598008957440

  ==> Basis Set <==

  Basis Set: AUG-CC-PVTZ
    Blend: AUG-CC-PVTZ
    Number of shells: 248
    Number of basis functions: 736
    Number of Cartesian functions: 850
    Spherical Harmonics?: true
    Max angular momentum: 3

  ==> CGRSolver (by Rob Parrish) <==

   Number of roots    =         1
   Preconditioning    =    JACOBI
   Convergence cutoff =     1E-06
   Maximum iterations =       100

  ==> CPHFRHamiltonian (by Rob Parrish) <== 

  ==> MemDFJK: Density-Fitted J/K Matrices <==

    J tasked:                   Yes
    K tasked:                   Yes
    wK tasked:                   No
    OpenMP threads:               8
    Memory [MiB]:             22888
    Algorithm:                 Core
    Schwarz Cutoff:           1E-12
    Mask sparsity (%):       7.8627
    Fitting Condition:        1E-10

   => Auxiliary Basis Set <=

  Basis Set: (AUG-CC-PVTZ AUX)
    Blend: AUG-CC-PVTZ-JKFIT
    Number of shells: 468
    Number of basis functions: 1592
    Number of Cartesian functions: 1970
    Spherical Harmonics?: true
    Max angular momentum: 4

  ==> CPHF Iterations <==

  => Iterations <=

             Iter  Converged  Remaining    Residual
  CGR           1          0          1   7.603E-02
  CGR           2          0          1   1.391E-02
  CGR           3          0          1   4.801E-03
  CGR           4          0          1   1.931E-03
  CGR           5          0          1   9.667E-04
  CGR           6          0          1   5.574E-04
  CGR           7          0          1   1.970E-04
  CGR           8          0          1   5.863E-05
  CGR           9          0          1   1.729E-05
  CGR          10          0          1   3.524E-06
  CGR          11          0          1   1.323E-06
  CGR          12          1          0   3.767E-07

    CGRSolver converged.

	-----------------------------------------------------------
	 ==================> DF-MP2 Energies <==================== 
	-----------------------------------------------------------
	 Reference Energy          =    -385.7685980089574400 [Eh]
	 Singles Energy            =      -0.0000000000000000 [Eh]
	 Same-Spin Energy          =      -0.4317059512028410 [Eh]
	 Opposite-Spin Energy      =      -1.4112455799477719 [Eh]
	 Correlation Energy        =      -1.8429515311506128 [Eh]
	 Total Energy              =    -387.6115495401080580 [Eh]
	-----------------------------------------------------------
	 ================> DF-SCS-MP2 Energies <================== 
	-----------------------------------------------------------
	 SCS Same-Spin Scale       =       0.3333333333333333 [-]
	 SCS Opposite-Spin Scale   =       1.2000000000000000 [-]
	 SCS Same-Spin Energy      =      -0.1439019837342803 [Eh]
	 SCS Opposite-Spin Energy  =      -1.6934946959373263 [Eh]
	 SCS Correlation Energy    =      -1.8373966796716066 [Eh]
	 SCS Total Energy          =    -387.6059946886290390 [Eh]
	-----------------------------------------------------------



Properties will be evaluated at   0.000000,  -0.000000,   0.000000 [a0]

Properties computed using the MP2 density matrix

  Nuclear Dipole Moment: [e a0]
     X:    -0.1387      Y:    -0.0203      Z:     1.4523

  Electronic Dipole Moment: [e a0]
     X:     0.1766      Y:     0.0258      Z:    -1.4408

  Dipole Moment: [e a0]
     X:     0.0379      Y:     0.0055      Z:     0.0115     Total:     0.0400

  Dipole Moment: [D]
     X:     0.0963      Y:     0.0140      Z:     0.0292     Total:     0.1016


*** tstop() called on c452-062.stampede2.tacc.utexas.edu at Wed Mar 31 12:12:02 2021
Module time:
	user time   =    1935.12 seconds =      32.25 minutes
	system time =      28.05 seconds =       0.47 minutes
	total time  =        309 seconds =       5.15 minutes
Total time:
	user time   =    2417.75 seconds =      40.30 minutes
	system time =      39.34 seconds =       0.66 minutes
	total time  =        389 seconds =       6.48 minutes

    Psi4 stopped on: Wednesday, 31 March 2021 12:12PM
    Psi4 wall time for execution: 0:06:29.76

*** Psi4 exiting successfully. Buy a developer a beer!
