
    -----------------------------------------------------------------------
          Psi4: An Open-Source Ab Initio Electronic Structure Package
                               Psi4 1.3.2 release

                         Git: Rev {HEAD} ecbda83 


    R. M. Parrish, L. A. Burns, D. G. A. Smith, A. C. Simmonett,
    A. E. DePrince III, E. G. Hohenstein, U. Bozkaya, A. Yu. Sokolov,
    R. Di Remigio, R. M. Richard, J. F. Gonthier, A. M. James,
    H. R. McAlexander, A. Kumar, M. Saitow, X. Wang, B. P. Pritchard,
    P. Verma, H. F. Schaefer III, K. Patkowski, R. A. King, E. F. Valeev,
    F. A. Evangelista, J. M. Turney, T. D. Crawford, and C. D. Sherrill,
    J. Chem. Theory Comput. 13(7) pp 3185--3197 (2017).
    (doi: 10.1021/acs.jctc.7b00174)


                         Additional Contributions by
    P. Kraus, H. Kruse, M. H. Lechner, M. C. Schieber, R. A. Shaw,
    A. Alenaizan, R. Galvelis, Z. L. Glick, S. Lehtola, and J. P. Misiewicz

    -----------------------------------------------------------------------


    Psi4 started on: Monday, 02 November 2020 05:50PM

    Process ID: 34014
    Host:       node37.bme.utexas.edu
    PSIDATADIR: /home/xy3866/psi4conda/share/psi4
    Memory:     500.0 MiB
    Threads:    8
    
  ==> Input File <==

--------------------------------------------------------------------------
#psi4
#
memory 32 gb

molecule  {
0 1
  O        0.3509462    -1.1881034     0.6937368
  C       -1.1363630     0.3083220    -0.3952430
  C        0.2489750    -0.1877140    -0.0130640
  C        1.4007792     0.6461881    -0.5347056
  C       -1.6230330     1.2650800     0.7040440
  C       -2.1008890    -0.8571740    -0.5744690
  C        2.7660710     0.0938090     0.0047360
  H       -1.0562100     0.8719860    -1.3362890
  H        1.2791640     1.6640640    -0.2248860
  H        1.4031030     0.6104820    -1.6083150
  H       -0.9521060     2.1204610     0.8293460
  H       -1.6846230     0.7313890     1.6588270
  H       -2.6168740     1.6507050     0.4584890
  H       -1.7562200    -1.5424760    -1.3562160
  H       -2.1750630    -1.4236530     0.3564710
  H       -3.0946750    -0.4900390    -0.8506910
  H        2.7911150     0.1168120     1.0954440
  H        2.9171760    -0.9417660    -0.3044500
  H        3.5913670     0.6986870    -0.3779970
units angstrom
no_reorient  #important for SAPT in psi4, default
symmetry c1  #important for SAPT in psi4, default
}

set PROPERTIES_ORIGIN ["COM"]
properties('MP2/aug-cc-pvtz', properties = ['dipole'])
--------------------------------------------------------------------------

  Memory set to  29.802 GiB by Python driver.
    SCF Algorithm Type (re)set to DF.

*** tstart() called on node37.bme.utexas.edu
*** at Mon Nov  2 17:50:37 2020

   => Loading Basis Set <=

    Name: AUG-CC-PVTZ
    Role: ORBITAL
    Keyword: BASIS
    atoms 1    entry O          line   327 file /home/xy3866/psi4conda/share/psi4/basis/aug-cc-pvtz.gbs 
    atoms 2-7  entry C          line   235 file /home/xy3866/psi4conda/share/psi4/basis/aug-cc-pvtz.gbs 
    atoms 8-19 entry H          line    36 file /home/xy3866/psi4conda/share/psi4/basis/aug-cc-pvtz.gbs 


         ---------------------------------------------------------
                                   SCF
               by Justin Turney, Rob Parrish, Andy Simmonett
                          and Daniel G. A. Smith
                              RHF Reference
                        8 Threads,  30517 MiB Core
         ---------------------------------------------------------

  ==> Geometry <==

    Molecular point group: c1
    Full point group: C1

    Geometry (in Angstrom), charge = 0, multiplicity = 1:

       Center              X                  Y                   Z               Mass       
    ------------   -----------------  -----------------  -----------------  -----------------
         O            0.361782605481    -1.191270531519     0.696548472396    15.994914619570
         C           -1.125526594519     0.305154868481    -0.392431327604    12.000000000000
         C            0.259811405481    -0.190881131519    -0.010252327604    12.000000000000
         C            1.411615605481     0.643020968481    -0.531893927604    12.000000000000
         C           -1.612196594519     1.261912868481     0.706855672396    12.000000000000
         C           -2.090052594519    -0.860341131519    -0.571657327604    12.000000000000
         C            2.776907405481     0.090641868481     0.007547672396    12.000000000000
         H           -1.045373594519     0.868818868481    -1.333477327604     1.007825032230
         H            1.290000405481     1.660896868481    -0.222074327604     1.007825032230
         H            1.413939405481     0.607314868481    -1.605503327604     1.007825032230
         H           -0.941269594519     2.117293868481     0.832157672396     1.007825032230
         H           -1.673786594519     0.728221868481     1.661638672396     1.007825032230
         H           -2.606037594519     1.647537868481     0.461300672396     1.007825032230
         H           -1.745383594519    -1.545643131519    -1.353404327604     1.007825032230
         H           -2.164226594519    -1.426820131519     0.359282672396     1.007825032230
         H           -3.083838594519    -0.493206131519    -0.847879327604     1.007825032230
         H            2.801951405481     0.113644868481     1.098255672396     1.007825032230
         H            2.928012405481    -0.944933131519    -0.301638327604     1.007825032230
         H            3.602203405481     0.695519868481    -0.375185327604     1.007825032230

  Running in c1 symmetry.

  Rotational constants: A =      0.15282  B =      0.05340  C =      0.04740 [cm^-1]
  Rotational constants: A =   4581.55018  B =   1600.81614  C =   1420.92049 [MHz]
  Nuclear repulsion =  314.882367336875518

  Charge       = 0
  Multiplicity = 1
  Electrons    = 56
  Nalpha       = 28
  Nbeta        = 28

  ==> Algorithm <==

  SCF Algorithm Type is DF.
  DIIS enabled.
  MOM disabled.
  Fractional occupation disabled.
  Guess Type is SAD.
  Energy threshold   = 1.00e-10
  Density threshold  = 1.00e-10
  Integral threshold = 0.00e+00

  ==> Primary Basis <==

  Basis Set: AUG-CC-PVTZ
    Blend: AUG-CC-PVTZ
    Number of shells: 206
    Number of basis function: 598
    Number of Cartesian functions: 685
    Spherical Harmonics?: true
    Max angular momentum: 3

   => Loading Basis Set <=

    Name: (AUG-CC-PVTZ AUX)
    Role: JKFIT
    Keyword: DF_BASIS_SCF
    atoms 1    entry O          line   286 file /home/xy3866/psi4conda/share/psi4/basis/aug-cc-pvtz-jkfit.gbs 
    atoms 2-7  entry C          line   162 file /home/xy3866/psi4conda/share/psi4/basis/aug-cc-pvtz-jkfit.gbs 
    atoms 8-19 entry H          line    70 file /home/xy3866/psi4conda/share/psi4/basis/aug-cc-pvtz-jkfit.gbs 

  ==> Pre-Iterations <==

   -------------------------------------------------------
    Irrep   Nso     Nmo     Nalpha   Nbeta   Ndocc  Nsocc
   -------------------------------------------------------
     A        598     598       0       0       0       0
   -------------------------------------------------------
    Total     598     598      28      28      28       0
   -------------------------------------------------------

  ==> Integral Setup <==

  DFHelper Memory: AOs need 3.382 GiB; user supplied 22.352 GiB. Using in-core AOs.

  ==> MemDFJK: Density-Fitted J/K Matrices <==

    J tasked:                   Yes
    K tasked:                   Yes
    wK tasked:                   No
    OpenMP threads:               8
    Memory [MiB]:             22888
    Algorithm:                 Disk
    Schwarz Cutoff:           1E-12
    Mask sparsity (%):       3.9390
    Fitting Condition:        1E-10

   => Auxiliary Basis Set <=

  Basis Set: (AUG-CC-PVTZ AUX)
    Blend: AUG-CC-PVTZ-JKFIT
    Number of shells: 378
    Number of basis function: 1280
    Number of Cartesian functions: 1577
    Spherical Harmonics?: true
    Max angular momentum: 4

  Minimum eigenvalue in the overlap matrix is 2.4692185416E-06.
  Using Symmetric Orthogonalization.

  SCF Guess: Superposition of Atomic Densities via on-the-fly atomic UHF.

  ==> Iterations <==

                           Total Energy        Delta E     RMS |[F,P]|

   @DF-RHF iter SAD:  -308.32046833249410   -3.08320e+02   0.00000e+00 
   @DF-RHF iter   1:  -308.87044993238021   -5.49982e-01   1.20138e-03 DIIS
   @DF-RHF iter   2:  -309.11260150524799   -2.42152e-01   6.11736e-04 DIIS
   @DF-RHF iter   3:  -309.16831740475027   -5.57159e-02   1.36301e-04 DIIS
   @DF-RHF iter   4:  -309.17259476805248   -4.27736e-03   6.86037e-05 DIIS
   @DF-RHF iter   5:  -309.17349852101341   -9.03753e-04   1.05079e-05 DIIS
   @DF-RHF iter   6:  -309.17354719798556   -4.86770e-05   4.34915e-06 DIIS
   @DF-RHF iter   7:  -309.17355425236661   -7.05438e-06   1.85381e-06 DIIS
   @DF-RHF iter   8:  -309.17355581489852   -1.56253e-06   7.29817e-07 DIIS
   @DF-RHF iter   9:  -309.17355610729442   -2.92396e-07   1.47694e-07 DIIS
   @DF-RHF iter  10:  -309.17355612031258   -1.30182e-08   3.62253e-08 DIIS
   @DF-RHF iter  11:  -309.17355612081195   -4.99369e-10   1.01884e-08 DIIS
   @DF-RHF iter  12:  -309.17355612086038   -4.84306e-11   4.02578e-09 DIIS
   @DF-RHF iter  13:  -309.17355612087437   -1.39835e-11   2.08651e-09 DIIS
   @DF-RHF iter  14:  -309.17355612087806   -3.69482e-12   9.93416e-10 DIIS
   @DF-RHF iter  15:  -309.17355612088022   -2.16005e-12   3.69671e-10 DIIS
   @DF-RHF iter  16:  -309.17355612087891    1.30740e-12   8.58809e-11 DIIS
  Energy and wave function converged.


  ==> Post-Iterations <==

    Orbital Energies [Eh]
    ---------------------

    Doubly Occupied:                                                      

       1A    -20.542469     2A    -11.325624     3A    -11.239204  
       4A    -11.238624     5A    -11.227592     6A    -11.218652  
       7A    -11.213869     8A     -1.373662     9A     -1.090160  
      10A     -1.043172    11A     -0.936249    12A     -0.907045  
      13A     -0.824191    14A     -0.722296    15A     -0.672079  
      16A     -0.637590    17A     -0.622894    18A     -0.606800  
      19A     -0.567086    20A     -0.548054    21A     -0.541821  
      22A     -0.521760    23A     -0.514803    24A     -0.501111  
      25A     -0.497280    26A     -0.479039    27A     -0.470653  
      28A     -0.400755  

    Virtual:                                                              

      29A      0.025591    30A      0.032516    31A      0.035752  
      32A      0.040043    33A      0.050861    34A      0.052179  
      35A      0.054473    36A      0.057534    37A      0.066122  
      38A      0.072346    39A      0.075750    40A      0.080121  
      41A      0.103936    42A      0.111473    43A      0.116593  
      44A      0.119348    45A      0.122762    46A      0.127671  
      47A      0.128552    48A      0.133306    49A      0.135632  
      50A      0.139315    51A      0.145873    52A      0.148875  
      53A      0.150565    54A      0.153307    55A      0.160577  
      56A      0.164192    57A      0.166782    58A      0.174133  
      59A      0.182351    60A      0.187122    61A      0.204659  
      62A      0.214128    63A      0.222563    64A      0.227543  
      65A      0.238140    66A      0.241630    67A      0.257262  
      68A      0.257562    69A      0.264390    70A      0.274469  
      71A      0.276452    72A      0.280342    73A      0.285785  
      74A      0.288785    75A      0.295913    76A      0.302992  
      77A      0.308194    78A      0.309978    79A      0.316007  
      80A      0.326487    81A      0.337710    82A      0.342138  
      83A      0.347962    84A      0.352704    85A      0.357177  
      86A      0.363139    87A      0.365273    88A      0.369688  
      89A      0.372425    90A      0.377101    91A      0.383430  
      92A      0.384639    93A      0.391610    94A      0.394017  
      95A      0.408239    96A      0.410151    97A      0.412606  
      98A      0.414102    99A      0.422080   100A      0.426993  
     101A      0.432471   102A      0.436686   103A      0.439180  
     104A      0.443963   105A      0.447953   106A      0.452073  
     107A      0.456608   108A      0.460120   109A      0.462772  
     110A      0.465839   111A      0.476609   112A      0.477782  
     113A      0.485367   114A      0.490140   115A      0.498097  
     116A      0.502965   117A      0.506556   118A      0.508727  
     119A      0.514559   120A      0.518179   121A      0.525839  
     122A      0.527516   123A      0.532266   124A      0.538793  
     125A      0.545945   126A      0.547545   127A      0.559595  
     128A      0.564127   129A      0.568024   130A      0.577509  
     131A      0.579341   132A      0.585864   133A      0.596179  
     134A      0.603184   135A      0.611910   136A      0.617670  
     137A      0.625080   138A      0.627191   139A      0.639298  
     140A      0.647392   141A      0.648814   142A      0.653435  
     143A      0.664072   144A      0.675436   145A      0.684557  
     146A      0.688536   147A      0.695782   148A      0.698227  
     149A      0.717439   150A      0.735446   151A      0.738644  
     152A      0.749527   153A      0.769659   154A      0.785123  
     155A      0.792214   156A      0.802894   157A      0.811284  
     158A      0.817368   159A      0.827556   160A      0.833883  
     161A      0.836442   162A      0.846953   163A      0.853085  
     164A      0.855878   165A      0.864767   166A      0.870479  
     167A      0.873864   168A      0.876997   169A      0.883763  
     170A      0.888242   171A      0.894590   172A      0.897878  
     173A      0.904769   174A      0.911663   175A      0.915413  
     176A      0.924195   177A      0.932132   178A      0.936337  
     179A      0.942387   180A      0.946369   181A      0.951776  
     182A      0.960226   183A      0.964128   184A      0.969157  
     185A      0.975481   186A      0.982269   187A      0.987389  
     188A      0.992897   189A      1.004810   190A      1.014918  
     191A      1.021434   192A      1.029795   193A      1.032281  
     194A      1.036523   195A      1.045035   196A      1.049325  
     197A      1.058345   198A      1.070105   199A      1.080783  
     200A      1.085174   201A      1.089283   202A      1.098277  
     203A      1.106131   204A      1.112895   205A      1.119320  
     206A      1.123872   207A      1.140277   208A      1.142703  
     209A      1.149970   210A      1.153201   211A      1.162059  
     212A      1.168010   213A      1.173442   214A      1.175039  
     215A      1.186702   216A      1.196818   217A      1.204601  
     218A      1.209340   219A      1.215582   220A      1.222921  
     221A      1.228093   222A      1.236062   223A      1.238433  
     224A      1.250760   225A      1.251774   226A      1.265847  
     227A      1.270990   228A      1.281093   229A      1.297792  
     230A      1.303257   231A      1.311365   232A      1.321686  
     233A      1.327072   234A      1.342819   235A      1.344078  
     236A      1.358360   237A      1.360742   238A      1.367021  
     239A      1.385343   240A      1.395065   241A      1.403211  
     242A      1.417085   243A      1.422035   244A      1.436548  
     245A      1.443417   246A      1.455099   247A      1.461766  
     248A      1.469083   249A      1.476763   250A      1.484369  
     251A      1.485703   252A      1.505358   253A      1.510562  
     254A      1.515975   255A      1.530892   256A      1.542777  
     257A      1.544767   258A      1.548551   259A      1.563883  
     260A      1.572525   261A      1.593295   262A      1.597830  
     263A      1.601219   264A      1.612331   265A      1.616502  
     266A      1.636272   267A      1.645538   268A      1.648958  
     269A      1.651700   270A      1.663531   271A      1.664932  
     272A      1.675911   273A      1.686317   274A      1.700351  
     275A      1.711482   276A      1.715555   277A      1.720769  
     278A      1.726063   279A      1.729397   280A      1.738574  
     281A      1.745630   282A      1.749816   283A      1.755570  
     284A      1.758374   285A      1.768353   286A      1.777734  
     287A      1.792323   288A      1.799568   289A      1.801204  
     290A      1.810813   291A      1.831862   292A      1.840493  
     293A      1.841348   294A      1.861662   295A      1.864844  
     296A      1.878330   297A      1.890617   298A      1.898516  
     299A      1.911097   300A      1.914721   301A      1.924346  
     302A      1.933607   303A      1.945939   304A      1.952596  
     305A      1.958078   306A      1.969048   307A      1.969915  
     308A      1.986354   309A      1.997589   310A      2.002937  
     311A      2.024781   312A      2.038818   313A      2.048017  
     314A      2.052370   315A      2.053141   316A      2.058120  
     317A      2.066376   318A      2.081170   319A      2.109725  
     320A      2.117223   321A      2.124392   322A      2.142786  
     323A      2.157444   324A      2.162435   325A      2.181488  
     326A      2.210376   327A      2.214297   328A      2.232746  
     329A      2.240593   330A      2.244714   331A      2.257926  
     332A      2.264139   333A      2.270165   334A      2.280655  
     335A      2.281240   336A      2.290777   337A      2.304493  
     338A      2.317630   339A      2.337786   340A      2.339927  
     341A      2.359400   342A      2.369849   343A      2.390655  
     344A      2.403548   345A      2.407649   346A      2.418162  
     347A      2.435733   348A      2.447770   349A      2.460276  
     350A      2.488794   351A      2.492062   352A      2.511801  
     353A      2.517010   354A      2.557622   355A      2.562699  
     356A      2.589299   357A      2.612930   358A      2.632175  
     359A      2.683166   360A      2.689450   361A      2.723038  
     362A      2.737056   363A      2.750182   364A      2.791885  
     365A      2.829070   366A      2.850265   367A      2.860060  
     368A      2.889472   369A      2.923708   370A      2.946296  
     371A      2.988030   372A      3.065340   373A      3.090591  
     374A      3.127849   375A      3.134924   376A      3.197360  
     377A      3.262653   378A      3.277663   379A      3.329249  
     380A      3.346700   381A      3.365703   382A      3.403482  
     383A      3.406431   384A      3.431806   385A      3.436331  
     386A      3.450918   387A      3.463604   388A      3.497663  
     389A      3.506264   390A      3.508949   391A      3.524544  
     392A      3.537108   393A      3.547170   394A      3.571036  
     395A      3.582357   396A      3.594909   397A      3.610839  
     398A      3.631011   399A      3.656619   400A      3.668538  
     401A      3.673758   402A      3.695835   403A      3.700572  
     404A      3.703766   405A      3.715362   406A      3.722782  
     407A      3.732406   408A      3.745143   409A      3.752411  
     410A      3.759018   411A      3.770650   412A      3.797057  
     413A      3.801996   414A      3.811321   415A      3.812225  
     416A      3.816684   417A      3.831521   418A      3.837677  
     419A      3.846893   420A      3.870768   421A      3.877581  
     422A      3.898027   423A      3.902094   424A      3.922749  
     425A      3.927981   426A      3.941598   427A      3.947069  
     428A      3.970228   429A      3.986818   430A      3.990462  
     431A      4.009552   432A      4.013537   433A      4.024110  
     434A      4.028955   435A      4.043637   436A      4.061406  
     437A      4.065732   438A      4.071149   439A      4.087889  
     440A      4.092890   441A      4.109476   442A      4.132769  
     443A      4.136781   444A      4.158109   445A      4.172060  
     446A      4.185418   447A      4.207994   448A      4.222571  
     449A      4.227095   450A      4.238179   451A      4.244651  
     452A      4.250045   453A      4.265622   454A      4.275914  
     455A      4.289931   456A      4.299690   457A      4.307074  
     458A      4.323390   459A      4.329191   460A      4.334972  
     461A      4.366667   462A      4.375336   463A      4.388152  
     464A      4.405195   465A      4.437551   466A      4.446736  
     467A      4.459517   468A      4.482327   469A      4.507634  
     470A      4.521308   471A      4.525771   472A      4.552217  
     473A      4.569374   474A      4.588212   475A      4.610004  
     476A      4.618553   477A      4.634252   478A      4.646259  
     479A      4.667261   480A      4.674075   481A      4.686604  
     482A      4.702337   483A      4.722988   484A      4.749733  
     485A      4.754513   486A      4.766222   487A      4.792853  
     488A      4.820551   489A      4.845474   490A      4.849412  
     491A      4.860011   492A      4.865378   493A      4.875751  
     494A      4.892177   495A      4.900825   496A      4.903842  
     497A      4.917979   498A      4.921392   499A      4.959069  
     500A      4.964456   501A      4.965278   502A      5.003592  
     503A      5.033704   504A      5.035844   505A      5.062570  
     506A      5.123924   507A      5.134239   508A      5.141621  
     509A      5.146904   510A      5.149019   511A      5.180517  
     512A      5.192994   513A      5.199923   514A      5.215113  
     515A      5.229711   516A      5.255571   517A      5.272082  
     518A      5.288454   519A      5.296106   520A      5.304134  
     521A      5.331824   522A      5.342667   523A      5.376679  
     524A      5.382975   525A      5.398035   526A      5.410907  
     527A      5.431629   528A      5.442641   529A      5.460017  
     530A      5.468740   531A      5.492355   532A      5.506599  
     533A      5.510989   534A      5.535267   535A      5.542745  
     536A      5.567470   537A      5.599175   538A      5.614097  
     539A      5.633017   540A      5.640388   541A      5.648564  
     542A      5.675209   543A      5.706800   544A      5.735680  
     545A      5.748744   546A      5.785134   547A      5.794839  
     548A      5.804819   549A      5.836149   550A      5.856990  
     551A      5.869711   552A      5.896441   553A      5.938158  
     554A      6.013793   555A      6.034248   556A      6.077254  
     557A      6.106043   558A      6.141888   559A      6.154276  
     560A      6.189374   561A      6.210505   562A      6.220975  
     563A      6.230630   564A      6.239104   565A      6.266880  
     566A      6.288663   567A      6.306736   568A      6.318397  
     569A      6.399301   570A      6.488003   571A      6.585941  
     572A      6.742158   573A      6.758741   574A      6.812593  
     575A      6.820881   576A      6.848079   577A      6.865497  
     578A      6.877502   579A      6.891287   580A      6.932458  
     581A      6.952758   582A      7.141740   583A      7.180566  
     584A      7.287674   585A      7.481596   586A      7.557222  
     587A      7.586130   588A      7.714058   589A      7.795815  
     590A      7.987789   591A      8.074464   592A     16.027110  
     593A     17.555845   594A     17.719405   595A     18.121569  
     596A     18.502867   597A     19.168042   598A     20.355798  

    Final Occupation by Irrep:
              A 
    DOCC [    28 ]

  @DF-RHF Final Energy:  -309.17355612087891

   => Energetics <=

    Nuclear Repulsion Energy =            314.8823673368755180
    One-Electron Energy =               -1043.1427774262981529
    Two-Electron Energy =                 419.0868539685437213
    Total Energy =                       -309.1735561208789136

Computation Completed

*** tstop() called on node37.bme.utexas.edu at Mon Nov  2 17:51:58 2020
Module time:
	user time   =     279.13 seconds =       4.65 minutes
	system time =      62.96 seconds =       1.05 minutes
	total time  =         81 seconds =       1.35 minutes
Total time:
	user time   =     279.13 seconds =       4.65 minutes
	system time =      62.96 seconds =       1.05 minutes
	total time  =         81 seconds =       1.35 minutes
   => Loading Basis Set <=

    Name: (AUG-CC-PVTZ AUX)
    Role: RIFIT
    Keyword: DF_BASIS_MP2
    atoms 1    entry O          line   264 file /home/xy3866/psi4conda/share/psi4/basis/aug-cc-pvtz-ri.gbs 
    atoms 2-7  entry C          line   148 file /home/xy3866/psi4conda/share/psi4/basis/aug-cc-pvtz-ri.gbs 
    atoms 8-19 entry H          line    30 file /home/xy3866/psi4conda/share/psi4/basis/aug-cc-pvtz-ri.gbs 


*** tstart() called on node37.bme.utexas.edu
*** at Mon Nov  2 17:51:58 2020


  //>>>>>>>>>>>>>>>>>>>>>>>>>>>>>>>>>>>//
  //               DFMP2               //
  //<<<<<<<<<<<<<<<<<<<<<<<<<<<<<<<<<<<//

	 --------------------------------------------------------
	                          DF-MP2                         
	      2nd-Order Density-Fitted Moller-Plesset Theory     
	              RMP2 Wavefunction,   8 Threads             
	                                                         
	        Rob Parrish, Justin Turney, Andy Simmonett,      
	           Ed Hohenstein, and C. David Sherrill          
	 --------------------------------------------------------

   => Auxiliary Basis Set <=

  Basis Set: (AUG-CC-PVTZ AUX)
    Blend: AUG-CC-PVTZ-RI
    Number of shells: 364
    Number of basis function: 1294
    Number of Cartesian functions: 1612
    Spherical Harmonics?: true
    Max angular momentum: 4

	 --------------------------------------------------------
	                 NBF =   598, NAUX =  1294
	 --------------------------------------------------------
	   CLASS    FOCC     OCC    AOCC    AVIR     VIR    FVIR
	   PAIRS       0      28      28     570     570       0
	 --------------------------------------------------------

  DFHelper Memory: AOs need 3.382 GiB; user supplied 22.352 GiB. Using in-core AOs.


         ------------------------------------------------------------
                                     CPHF                           
                                  Rob Parrish                       
         ------------------------------------------------------------

  ==> Geometry <==

    Molecular point group: c1
    Full point group: C1

    Geometry (in Angstrom), charge = 0, multiplicity = 1:

       Center              X                  Y                   Z               Mass       
    ------------   -----------------  -----------------  -----------------  -----------------
         O            0.361782605481    -1.191270531519     0.696548472396    15.994914619570
         C           -1.125526594519     0.305154868481    -0.392431327604    12.000000000000
         C            0.259811405481    -0.190881131519    -0.010252327604    12.000000000000
         C            1.411615605481     0.643020968481    -0.531893927604    12.000000000000
         C           -1.612196594519     1.261912868481     0.706855672396    12.000000000000
         C           -2.090052594519    -0.860341131519    -0.571657327604    12.000000000000
         C            2.776907405481     0.090641868481     0.007547672396    12.000000000000
         H           -1.045373594519     0.868818868481    -1.333477327604     1.007825032230
         H            1.290000405481     1.660896868481    -0.222074327604     1.007825032230
         H            1.413939405481     0.607314868481    -1.605503327604     1.007825032230
         H           -0.941269594519     2.117293868481     0.832157672396     1.007825032230
         H           -1.673786594519     0.728221868481     1.661638672396     1.007825032230
         H           -2.606037594519     1.647537868481     0.461300672396     1.007825032230
         H           -1.745383594519    -1.545643131519    -1.353404327604     1.007825032230
         H           -2.164226594519    -1.426820131519     0.359282672396     1.007825032230
         H           -3.083838594519    -0.493206131519    -0.847879327604     1.007825032230
         H            2.801951405481     0.113644868481     1.098255672396     1.007825032230
         H            2.928012405481    -0.944933131519    -0.301638327604     1.007825032230
         H            3.602203405481     0.695519868481    -0.375185327604     1.007825032230

  Nuclear repulsion =  314.882367336875518
  Reference energy  = -309.173556120878914

  ==> Basis Set <==

  Basis Set: AUG-CC-PVTZ
    Blend: AUG-CC-PVTZ
    Number of shells: 206
    Number of basis function: 598
    Number of Cartesian functions: 685
    Spherical Harmonics?: true
    Max angular momentum: 3

  ==> CGRSolver (by Rob Parrish) <==

   Number of roots    =         1
   Preconditioning    =    JACOBI
   Convergence cutoff =     1E-06
   Maximum iterations =       100

  ==> CPHFRHamiltonian (by Rob Parrish) <== 

  ==> MemDFJK: Density-Fitted J/K Matrices <==

    J tasked:                   Yes
    K tasked:                   Yes
    wK tasked:                   No
    OpenMP threads:               8
    Memory [MiB]:             22888
    Algorithm:                 Disk
    Schwarz Cutoff:           1E-12
    Mask sparsity (%):       3.9390
    Fitting Condition:        1E-10

   => Auxiliary Basis Set <=

  Basis Set: (AUG-CC-PVTZ AUX)
    Blend: AUG-CC-PVTZ-JKFIT
    Number of shells: 378
    Number of basis function: 1280
    Number of Cartesian functions: 1577
    Spherical Harmonics?: true
    Max angular momentum: 4

  ==> CPHF Iterations <==

  => Iterations <=

             Iter  Converged  Remaining    Residual
  CGR           1          0          1   1.128E-01
  CGR           2          0          1   3.275E-02
  CGR           3          0          1   1.039E-02
  CGR           4          0          1   3.654E-03
  CGR           5          0          1   1.337E-03
  CGR           6          0          1   4.710E-04
  CGR           7          0          1   1.218E-04
  CGR           8          0          1   3.036E-05
  CGR           9          0          1   9.691E-06
  CGR          10          0          1   5.281E-06
  CGR          11          0          1   2.180E-06
  CGR          12          1          0   7.166E-07

    CGRSolver converged.

	-----------------------------------------------------------
	 ==================> DF-MP2 Energies <==================== 
	-----------------------------------------------------------
	 Reference Energy          =    -309.1735561208789136 [Eh]
	 Singles Energy            =      -0.0000000000000000 [Eh]
	 Same-Spin Energy          =      -0.3169027743432239 [Eh]
	 Opposite-Spin Energy      =      -1.1036122305469909 [Eh]
	 Correlation Energy        =      -1.4205150048902149 [Eh]
	 Total Energy              =    -310.5940711257691191 [Eh]
	-----------------------------------------------------------
	 ================> DF-SCS-MP2 Energies <================== 
	-----------------------------------------------------------
	 SCS Same-Spin Scale       =       0.3333333333333333 [-]
	 SCS Opposite-Spin Scale   =       1.2000000000000000 [-]
	 SCS Same-Spin Energy      =      -0.1056342581144080 [Eh]
	 SCS Opposite-Spin Energy  =      -1.3243346766563890 [Eh]
	 SCS Correlation Energy    =      -1.4299689347707969 [Eh]
	 SCS Total Energy          =    -310.6035250556496976 [Eh]
	-----------------------------------------------------------



Properties will be evaluated at   0.000000,   0.000000,  -0.000000 [a0]

Properties computed using the MP2 density matrix

  Nuclear Dipole Moment: [e a0]
     X:    -1.1455      Y:     3.7710      Z:    -1.5215

  Electronic Dipole Moment: [e a0]
     X:     1.0470      Y:    -2.8947      Z:     0.9489

  Dipole Moment: [e a0]
     X:    -0.0986      Y:     0.8763      Z:    -0.5725     Total:     1.0514

  Dipole Moment: [D]
     X:    -0.2506      Y:     2.2273      Z:    -1.4552     Total:     2.6723


*** tstop() called on node37.bme.utexas.edu at Mon Nov  2 17:54:32 2020
Module time:
	user time   =     710.29 seconds =      11.84 minutes
	system time =      85.22 seconds =       1.42 minutes
	total time  =        154 seconds =       2.57 minutes
Total time:
	user time   =     990.68 seconds =      16.51 minutes
	system time =     148.30 seconds =       2.47 minutes
	total time  =        235 seconds =       3.92 minutes

    Psi4 stopped on: Monday, 02 November 2020 05:54PM
    Psi4 wall time for execution: 0:03:55.86

*** Psi4 exiting successfully. Buy a developer a beer!
