
    -----------------------------------------------------------------------
          Psi4: An Open-Source Ab Initio Electronic Structure Package
                               Psi4 1.3.2 release

                         Git: Rev {HEAD} ecbda83 


    R. M. Parrish, L. A. Burns, D. G. A. Smith, A. C. Simmonett,
    A. E. DePrince III, E. G. Hohenstein, U. Bozkaya, A. Yu. Sokolov,
    R. Di Remigio, R. M. Richard, J. F. Gonthier, A. M. James,
    H. R. McAlexander, A. Kumar, M. Saitow, X. Wang, B. P. Pritchard,
    P. Verma, H. F. Schaefer III, K. Patkowski, R. A. King, E. F. Valeev,
    F. A. Evangelista, J. M. Turney, T. D. Crawford, and C. D. Sherrill,
    J. Chem. Theory Comput. 13(7) pp 3185--3197 (2017).
    (doi: 10.1021/acs.jctc.7b00174)


                         Additional Contributions by
    P. Kraus, H. Kruse, M. H. Lechner, M. C. Schieber, R. A. Shaw,
    A. Alenaizan, R. Galvelis, Z. L. Glick, S. Lehtola, and J. P. Misiewicz

    -----------------------------------------------------------------------


    Psi4 started on: Monday, 02 November 2020 05:20PM

    Process ID: 29676
    Host:       node37.bme.utexas.edu
    PSIDATADIR: /home/xy3866/psi4conda/share/psi4
    Memory:     500.0 MiB
    Threads:    8
    
  ==> Input File <==

--------------------------------------------------------------------------
#psi4
#
memory 32 gb

molecule  {
0 1
  O        0.4360910    -1.1782831     0.6901463
  C       -1.1136887     0.3477714    -0.4225477
  C        0.2489750    -0.1877140    -0.0130640
  C        1.4343240     0.6136100    -0.5100380
  C       -1.6230330     1.2650800     0.7040440
  C       -2.1008890    -0.8571740    -0.5744690
  C        2.7660710     0.0938090     0.0047360
  H       -1.0562100     0.8719860    -1.3362890
  H        1.2791640     1.6640640    -0.2248860
  H        1.4031030     0.6104820    -1.6083150
  H       -0.9521060     2.1204610     0.8293460
  H       -1.6846230     0.7313890     1.6588270
  H       -2.6168740     1.6507050     0.4584890
  H       -1.7562200    -1.5424760    -1.3562160
  H       -2.1750630    -1.4236530     0.3564710
  H       -3.0946750    -0.4900390    -0.8506910
  H        2.7911150     0.1168120     1.0954440
  H        2.9171760    -0.9417660    -0.3044500
  H        3.5913670     0.6986870    -0.3779970
units angstrom
no_reorient  #important for SAPT in psi4, default
symmetry c1  #important for SAPT in psi4, default
}

set PROPERTIES_ORIGIN ["COM"]
properties('MP2/aug-cc-pvtz', properties = ['dipole'])
--------------------------------------------------------------------------

  Memory set to  29.802 GiB by Python driver.
    SCF Algorithm Type (re)set to DF.

*** tstart() called on node37.bme.utexas.edu
*** at Mon Nov  2 17:20:18 2020

   => Loading Basis Set <=

    Name: AUG-CC-PVTZ
    Role: ORBITAL
    Keyword: BASIS
    atoms 1    entry O          line   327 file /home/xy3866/psi4conda/share/psi4/basis/aug-cc-pvtz.gbs 
    atoms 2-7  entry C          line   235 file /home/xy3866/psi4conda/share/psi4/basis/aug-cc-pvtz.gbs 
    atoms 8-19 entry H          line    36 file /home/xy3866/psi4conda/share/psi4/basis/aug-cc-pvtz.gbs 


         ---------------------------------------------------------
                                   SCF
               by Justin Turney, Rob Parrish, Andy Simmonett
                          and Daniel G. A. Smith
                              RHF Reference
                        8 Threads,  30517 MiB Core
         ---------------------------------------------------------

  ==> Geometry <==

    Molecular point group: c1
    Full point group: C1

    Geometry (in Angstrom), charge = 0, multiplicity = 1:

       Center              X                  Y                   Z               Mass       
    ------------   -----------------  -----------------  -----------------  -----------------
         O            0.426580346660    -1.183843410618     0.693847931389    15.994914619570
         C           -1.123199353340     0.342211089382    -0.418846068611    12.000000000000
         C            0.239464346660    -0.193274310618    -0.009362368611    12.000000000000
         C            1.424813346660     0.608049689382    -0.506336368611    12.000000000000
         C           -1.632543653340     1.259519689382     0.707745631389    12.000000000000
         C           -2.110399653340    -0.862734310618    -0.570767368611    12.000000000000
         C            2.756560346660     0.088248689382     0.008437631389    12.000000000000
         H           -1.065720653340     0.866425689382    -1.332587368611     1.007825032230
         H            1.269653346660     1.658503689382    -0.221184368611     1.007825032230
         H            1.393592346660     0.604921689382    -1.604613368611     1.007825032230
         H           -0.961616653340     2.114900689382     0.833047631389     1.007825032230
         H           -1.694133653340     0.725828689382     1.662528631389     1.007825032230
         H           -2.626384653340     1.645144689382     0.462190631389     1.007825032230
         H           -1.765730653340    -1.548036310618    -1.352514368611     1.007825032230
         H           -2.184573653340    -1.429213310618     0.360172631389     1.007825032230
         H           -3.104185653340    -0.495599310618    -0.846989368611     1.007825032230
         H            2.781604346660     0.111251689382     1.099145631389     1.007825032230
         H            2.907665346660    -0.947326310618    -0.300748368611     1.007825032230
         H            3.581856346660     0.693126689382    -0.374295368611     1.007825032230

  Running in c1 symmetry.

  Rotational constants: A =      0.15377  B =      0.05315  C =      0.04725 [cm^-1]
  Rotational constants: A =   4610.04913  B =   1593.46517  C =   1416.62470 [MHz]
  Nuclear repulsion =  314.727820164362981

  Charge       = 0
  Multiplicity = 1
  Electrons    = 56
  Nalpha       = 28
  Nbeta        = 28

  ==> Algorithm <==

  SCF Algorithm Type is DF.
  DIIS enabled.
  MOM disabled.
  Fractional occupation disabled.
  Guess Type is SAD.
  Energy threshold   = 1.00e-10
  Density threshold  = 1.00e-10
  Integral threshold = 0.00e+00

  ==> Primary Basis <==

  Basis Set: AUG-CC-PVTZ
    Blend: AUG-CC-PVTZ
    Number of shells: 206
    Number of basis function: 598
    Number of Cartesian functions: 685
    Spherical Harmonics?: true
    Max angular momentum: 3

   => Loading Basis Set <=

    Name: (AUG-CC-PVTZ AUX)
    Role: JKFIT
    Keyword: DF_BASIS_SCF
    atoms 1    entry O          line   286 file /home/xy3866/psi4conda/share/psi4/basis/aug-cc-pvtz-jkfit.gbs 
    atoms 2-7  entry C          line   162 file /home/xy3866/psi4conda/share/psi4/basis/aug-cc-pvtz-jkfit.gbs 
    atoms 8-19 entry H          line    70 file /home/xy3866/psi4conda/share/psi4/basis/aug-cc-pvtz-jkfit.gbs 

  ==> Pre-Iterations <==

   -------------------------------------------------------
    Irrep   Nso     Nmo     Nalpha   Nbeta   Ndocc  Nsocc
   -------------------------------------------------------
     A        598     598       0       0       0       0
   -------------------------------------------------------
    Total     598     598      28      28      28       0
   -------------------------------------------------------

  ==> Integral Setup <==

  DFHelper Memory: AOs need 3.381 GiB; user supplied 22.352 GiB. Using in-core AOs.

  ==> MemDFJK: Density-Fitted J/K Matrices <==

    J tasked:                   Yes
    K tasked:                   Yes
    wK tasked:                   No
    OpenMP threads:               8
    Memory [MiB]:             22888
    Algorithm:                 Disk
    Schwarz Cutoff:           1E-12
    Mask sparsity (%):       3.9530
    Fitting Condition:        1E-10

   => Auxiliary Basis Set <=

  Basis Set: (AUG-CC-PVTZ AUX)
    Blend: AUG-CC-PVTZ-JKFIT
    Number of shells: 378
    Number of basis function: 1280
    Number of Cartesian functions: 1577
    Spherical Harmonics?: true
    Max angular momentum: 4

  Minimum eigenvalue in the overlap matrix is 2.5280739060E-06.
  Using Symmetric Orthogonalization.

  SCF Guess: Superposition of Atomic Densities via on-the-fly atomic UHF.

  ==> Iterations <==

                           Total Energy        Delta E     RMS |[F,P]|

   @DF-RHF iter SAD:  -308.32171413367195   -3.08322e+02   0.00000e+00 
   @DF-RHF iter   1:  -308.86910315472585   -5.47389e-01   1.20329e-03 DIIS
   @DF-RHF iter   2:  -309.11231014329661   -2.43207e-01   6.13226e-04 DIIS
   @DF-RHF iter   3:  -309.16806997132676   -5.57598e-02   1.36487e-04 DIIS
   @DF-RHF iter   4:  -309.17234674150984   -4.27677e-03   6.94502e-05 DIIS
   @DF-RHF iter   5:  -309.17327126686945   -9.24525e-04   1.01360e-05 DIIS
   @DF-RHF iter   6:  -309.17332058314344   -4.93163e-05   3.90077e-06 DIIS
   @DF-RHF iter   7:  -309.17332710337297   -6.52023e-06   1.71261e-06 DIIS
   @DF-RHF iter   8:  -309.17332842716110   -1.32379e-06   6.69465e-07 DIIS
   @DF-RHF iter   9:  -309.17332866587748   -2.38716e-07   1.49510e-07 DIIS
   @DF-RHF iter  10:  -309.17332867840338   -1.25259e-08   3.52315e-08 DIIS
   @DF-RHF iter  11:  -309.17332867891412   -5.10738e-10   1.04373e-08 DIIS
   @DF-RHF iter  12:  -309.17332867897244   -5.83213e-11   4.56150e-09 DIIS
   @DF-RHF iter  13:  -309.17332867899097   -1.85310e-11   2.39859e-09 DIIS
   @DF-RHF iter  14:  -309.17332867899557   -4.60432e-12   1.03118e-09 DIIS
   @DF-RHF iter  15:  -309.17332867899881   -3.24007e-12   3.60929e-10 DIIS
   @DF-RHF iter  16:  -309.17332867899870    1.13687e-13   8.31780e-11 DIIS
  Energy and wave function converged.


  ==> Post-Iterations <==

    Orbital Energies [Eh]
    ---------------------

    Doubly Occupied:                                                      

       1A    -20.541482     2A    -11.325399     3A    -11.242579  
       4A    -11.235979     5A    -11.230174     6A    -11.218661  
       7A    -11.213230     8A     -1.372931     9A     -1.090745  
      10A     -1.044099    11A     -0.934729    12A     -0.907683  
      13A     -0.824556    14A     -0.726058    15A     -0.673618  
      16A     -0.631075    17A     -0.621067    18A     -0.605876  
      19A     -0.567114    20A     -0.552171    21A     -0.544903  
      22A     -0.518954    23A     -0.512537    24A     -0.505613  
      25A     -0.491963    26A     -0.487715    27A     -0.465312  
      28A     -0.401018  

    Virtual:                                                              

      29A      0.025419    30A      0.032588    31A      0.035683  
      32A      0.039800    33A      0.050879    34A      0.052400  
      35A      0.054405    36A      0.057391    37A      0.065826  
      38A      0.072337    39A      0.075581    40A      0.080367  
      41A      0.104569    42A      0.110986    43A      0.115552  
      44A      0.119849    45A      0.122842    46A      0.127599  
      47A      0.128143    48A      0.133299    49A      0.135327  
      50A      0.139851    51A      0.145726    52A      0.149158  
      53A      0.150831    54A      0.153583    55A      0.160410  
      56A      0.164033    57A      0.167345    58A      0.173286  
      59A      0.181804    60A      0.185741    61A      0.205783  
      62A      0.214459    63A      0.223355    64A      0.227773  
      65A      0.238051    66A      0.241509    67A      0.256765  
      68A      0.257331    69A      0.264515    70A      0.273906  
      71A      0.275824    72A      0.279929    73A      0.285888  
      74A      0.287689    75A      0.295971    76A      0.303285  
      77A      0.308648    78A      0.311207    79A      0.317782  
      80A      0.325993    81A      0.335506    82A      0.341389  
      83A      0.348950    84A      0.351793    85A      0.357233  
      86A      0.362464    87A      0.364841    88A      0.369146  
      89A      0.373364    90A      0.379350    91A      0.383541  
      92A      0.384551    93A      0.391490    94A      0.392798  
      95A      0.407751    96A      0.410064    97A      0.412697  
      98A      0.415564    99A      0.422324   100A      0.428787  
     101A      0.432719   102A      0.435718   103A      0.439362  
     104A      0.443416   105A      0.446064   106A      0.451483  
     107A      0.455088   108A      0.460533   109A      0.462101  
     110A      0.465364   111A      0.476110   112A      0.478009  
     113A      0.484532   114A      0.489728   115A      0.497881  
     116A      0.502478   117A      0.505599   118A      0.511076  
     119A      0.516351   120A      0.521154   121A      0.524825  
     122A      0.529032   123A      0.532078   124A      0.538873  
     125A      0.545804   126A      0.547490   127A      0.560559  
     128A      0.563139   129A      0.568095   130A      0.576121  
     131A      0.578576   132A      0.586164   133A      0.595118  
     134A      0.601365   135A      0.613761   136A      0.616815  
     137A      0.623849   138A      0.625791   139A      0.638025  
     140A      0.648960   141A      0.649719   142A      0.658241  
     143A      0.665279   144A      0.672044   145A      0.680897  
     146A      0.685359   147A      0.693372   148A      0.701511  
     149A      0.714235   150A      0.733345   151A      0.737426  
     152A      0.746403   153A      0.771132   154A      0.789205  
     155A      0.790598   156A      0.804345   157A      0.810389  
     158A      0.817558   159A      0.826677   160A      0.834393  
     161A      0.837572   162A      0.847472   163A      0.847820  
     164A      0.858142   165A      0.867136   166A      0.870026  
     167A      0.873675   168A      0.881231   169A      0.885029  
     170A      0.888858   171A      0.896310   172A      0.898583  
     173A      0.903722   174A      0.910787   175A      0.917174  
     176A      0.922936   177A      0.933091   178A      0.934675  
     179A      0.945376   180A      0.946857   181A      0.950484  
     182A      0.957247   183A      0.964368   184A      0.969393  
     185A      0.974964   186A      0.981138   187A      0.986582  
     188A      0.996199   189A      1.003758   190A      1.015619  
     191A      1.019071   192A      1.025759   193A      1.030742  
     194A      1.036645   195A      1.044594   196A      1.049814  
     197A      1.055751   198A      1.068282   199A      1.083826  
     200A      1.085329   201A      1.089990   202A      1.099957  
     203A      1.104933   204A      1.110731   205A      1.115747  
     206A      1.121478   207A      1.138951   208A      1.143765  
     209A      1.150635   210A      1.152229   211A      1.165064  
     212A      1.167601   213A      1.172716   214A      1.174828  
     215A      1.187164   216A      1.195423   217A      1.206016  
     218A      1.208874   219A      1.213384   220A      1.221450  
     221A      1.226973   222A      1.235803   223A      1.240584  
     224A      1.251102   225A      1.252802   226A      1.263346  
     227A      1.270472   228A      1.277899   229A      1.293714  
     230A      1.301117   231A      1.306848   232A      1.319887  
     233A      1.325699   234A      1.338282   235A      1.345231  
     236A      1.350953   237A      1.356287   238A      1.365136  
     239A      1.385396   240A      1.398922   241A      1.402949  
     242A      1.412091   243A      1.420589   244A      1.437832  
     245A      1.446353   246A      1.457025   247A      1.460609  
     248A      1.467672   249A      1.478119   250A      1.484687  
     251A      1.488801   252A      1.504865   253A      1.509009  
     254A      1.518403   255A      1.528246   256A      1.542229  
     257A      1.545024   258A      1.547281   259A      1.565086  
     260A      1.578144   261A      1.590207   262A      1.596933  
     263A      1.609743   264A      1.612599   265A      1.623706  
     266A      1.637614   267A      1.643730   268A      1.650219  
     269A      1.657785   270A      1.659903   271A      1.664978  
     272A      1.676958   273A      1.689345   274A      1.703041  
     275A      1.710297   276A      1.711448   277A      1.718285  
     278A      1.724475   279A      1.727447   280A      1.738005  
     281A      1.744488   282A      1.747173   283A      1.753589  
     284A      1.762047   285A      1.769173   286A      1.779785  
     287A      1.792841   288A      1.795124   289A      1.801779  
     290A      1.811165   291A      1.826735   292A      1.837860  
     293A      1.842064   294A      1.864459   295A      1.870317  
     296A      1.877658   297A      1.884768   298A      1.897888  
     299A      1.913929   300A      1.916287   301A      1.924901  
     302A      1.930370   303A      1.943467   304A      1.948984  
     305A      1.956982   306A      1.965620   307A      1.975391  
     308A      1.980512   309A      1.993925   310A      2.007667  
     311A      2.021321   312A      2.038627   313A      2.044367  
     314A      2.052100   315A      2.057736   316A      2.058335  
     317A      2.072030   318A      2.085001   319A      2.106252  
     320A      2.115777   321A      2.120426   322A      2.139694  
     323A      2.158735   324A      2.165239   325A      2.177099  
     326A      2.208970   327A      2.213833   328A      2.224317  
     329A      2.240469   330A      2.249233   331A      2.254475  
     332A      2.262791   333A      2.273746   334A      2.276878  
     335A      2.287971   336A      2.288804   337A      2.298745  
     338A      2.310145   339A      2.331933   340A      2.340002  
     341A      2.359191   342A      2.362049   343A      2.377437  
     344A      2.397062   345A      2.416841   346A      2.423996  
     347A      2.430882   348A      2.444063   349A      2.468759  
     350A      2.486230   351A      2.498666   352A      2.514468  
     353A      2.544139   354A      2.554385   355A      2.568355  
     356A      2.586059   357A      2.607837   358A      2.642072  
     359A      2.685543   360A      2.712930   361A      2.727492  
     362A      2.739134   363A      2.759446   364A      2.805878  
     365A      2.822866   366A      2.839026   367A      2.858647  
     368A      2.900638   369A      2.905376   370A      2.965643  
     371A      3.009342   372A      3.046524   373A      3.087632  
     374A      3.114633   375A      3.128587   376A      3.195375  
     377A      3.260077   378A      3.264883   379A      3.317410  
     380A      3.344383   381A      3.368587   382A      3.389999  
     383A      3.410638   384A      3.430470   385A      3.451881  
     386A      3.453798   387A      3.469336   388A      3.497225  
     389A      3.503807   390A      3.507206   391A      3.527412  
     392A      3.537705   393A      3.555124   394A      3.570160  
     395A      3.584867   396A      3.589731   397A      3.607392  
     398A      3.638199   399A      3.654512   400A      3.669084  
     401A      3.675829   402A      3.692830   403A      3.704954  
     404A      3.707955   405A      3.714802   406A      3.719818  
     407A      3.738700   408A      3.746226   409A      3.751771  
     410A      3.769225   411A      3.776646   412A      3.792808  
     413A      3.800740   414A      3.803971   415A      3.818018  
     416A      3.820458   417A      3.829576   418A      3.834086  
     419A      3.861218   420A      3.870384   421A      3.884205  
     422A      3.885155   423A      3.899522   424A      3.904561  
     425A      3.924508   426A      3.935100   427A      3.948977  
     428A      3.969878   429A      3.982514   430A      3.992679  
     431A      4.005184   432A      4.011042   433A      4.015345  
     434A      4.034087   435A      4.037339   436A      4.049679  
     437A      4.064522   438A      4.080639   439A      4.092887  
     440A      4.102367   441A      4.107072   442A      4.130496  
     443A      4.141748   444A      4.153165   445A      4.184874  
     446A      4.190850   447A      4.215371   448A      4.222849  
     449A      4.226292   450A      4.238763   451A      4.240681  
     452A      4.249730   453A      4.263442   454A      4.275966  
     455A      4.282048   456A      4.301315   457A      4.303994  
     458A      4.313200   459A      4.325449   460A      4.336232  
     461A      4.354632   462A      4.378213   463A      4.381423  
     464A      4.398965   465A      4.428545   466A      4.447658  
     467A      4.465761   468A      4.492891   469A      4.499155  
     470A      4.510461   471A      4.520126   472A      4.554926  
     473A      4.576423   474A      4.593673   475A      4.601543  
     476A      4.624980   477A      4.638309   478A      4.651116  
     479A      4.670092   480A      4.688571   481A      4.692288  
     482A      4.701213   483A      4.714154   484A      4.748182  
     485A      4.761876   486A      4.774707   487A      4.785718  
     488A      4.817074   489A      4.826751   490A      4.843162  
     491A      4.866133   492A      4.869840   493A      4.879582  
     494A      4.893473   495A      4.894847   496A      4.901415  
     497A      4.907251   498A      4.936039   499A      4.948148  
     500A      4.960644   501A      4.979259   502A      4.999304  
     503A      5.025833   504A      5.049307   505A      5.056544  
     506A      5.118792   507A      5.126968   508A      5.132959  
     509A      5.147222   510A      5.156426   511A      5.177960  
     512A      5.191387   513A      5.197471   514A      5.212539  
     515A      5.230062   516A      5.245892   517A      5.263910  
     518A      5.287963   519A      5.292655   520A      5.297539  
     521A      5.334778   522A      5.340564   523A      5.366307  
     524A      5.389977   525A      5.396984   526A      5.410670  
     527A      5.427386   528A      5.450029   529A      5.462126  
     530A      5.473979   531A      5.480276   532A      5.503963  
     533A      5.520346   534A      5.535224   535A      5.547055  
     536A      5.555237   537A      5.597308   538A      5.621299  
     539A      5.630052   540A      5.641212   541A      5.652534  
     542A      5.677690   543A      5.701526   544A      5.730015  
     545A      5.749874   546A      5.776488   547A      5.796894  
     548A      5.808973   549A      5.829410   550A      5.857528  
     551A      5.892705   552A      5.911422   553A      5.939931  
     554A      6.028363   555A      6.049939   556A      6.065349  
     557A      6.103680   558A      6.128242   559A      6.143814  
     560A      6.170995   561A      6.213693   562A      6.230730  
     563A      6.239561   564A      6.249433   565A      6.256636  
     566A      6.299556   567A      6.327571   568A      6.334779  
     569A      6.377575   570A      6.492257   571A      6.572562  
     572A      6.750729   573A      6.762610   574A      6.816335  
     575A      6.827215   576A      6.845505   577A      6.866406  
     578A      6.885938   579A      6.906367   580A      6.938930  
     581A      6.947802   582A      7.147474   583A      7.178966  
     584A      7.283183   585A      7.481286   586A      7.564663  
     587A      7.579058   588A      7.711023   589A      7.796202  
     590A      7.987653   591A      8.082062   592A     15.903983  
     593A     17.602057   594A     17.695266   595A     18.071817  
     596A     18.817537   597A     18.910136   598A     20.158447  

    Final Occupation by Irrep:
              A 
    DOCC [    28 ]

  @DF-RHF Final Energy:  -309.17332867899870

   => Energetics <=

    Nuclear Repulsion Energy =            314.7278201643629814
    One-Electron Energy =               -1042.8278164646128516
    Two-Electron Energy =                 418.9266676212511129
    Total Energy =                       -309.1733286789987005

Computation Completed

*** tstop() called on node37.bme.utexas.edu at Mon Nov  2 17:21:35 2020
Module time:
	user time   =     268.71 seconds =       4.48 minutes
	system time =      59.52 seconds =       0.99 minutes
	total time  =         77 seconds =       1.28 minutes
Total time:
	user time   =     268.71 seconds =       4.48 minutes
	system time =      59.52 seconds =       0.99 minutes
	total time  =         77 seconds =       1.28 minutes
   => Loading Basis Set <=

    Name: (AUG-CC-PVTZ AUX)
    Role: RIFIT
    Keyword: DF_BASIS_MP2
    atoms 1    entry O          line   264 file /home/xy3866/psi4conda/share/psi4/basis/aug-cc-pvtz-ri.gbs 
    atoms 2-7  entry C          line   148 file /home/xy3866/psi4conda/share/psi4/basis/aug-cc-pvtz-ri.gbs 
    atoms 8-19 entry H          line    30 file /home/xy3866/psi4conda/share/psi4/basis/aug-cc-pvtz-ri.gbs 


*** tstart() called on node37.bme.utexas.edu
*** at Mon Nov  2 17:21:35 2020


  //>>>>>>>>>>>>>>>>>>>>>>>>>>>>>>>>>>>//
  //               DFMP2               //
  //<<<<<<<<<<<<<<<<<<<<<<<<<<<<<<<<<<<//

	 --------------------------------------------------------
	                          DF-MP2                         
	      2nd-Order Density-Fitted Moller-Plesset Theory     
	              RMP2 Wavefunction,   8 Threads             
	                                                         
	        Rob Parrish, Justin Turney, Andy Simmonett,      
	           Ed Hohenstein, and C. David Sherrill          
	 --------------------------------------------------------

   => Auxiliary Basis Set <=

  Basis Set: (AUG-CC-PVTZ AUX)
    Blend: AUG-CC-PVTZ-RI
    Number of shells: 364
    Number of basis function: 1294
    Number of Cartesian functions: 1612
    Spherical Harmonics?: true
    Max angular momentum: 4

	 --------------------------------------------------------
	                 NBF =   598, NAUX =  1294
	 --------------------------------------------------------
	   CLASS    FOCC     OCC    AOCC    AVIR     VIR    FVIR
	   PAIRS       0      28      28     570     570       0
	 --------------------------------------------------------

  DFHelper Memory: AOs need 3.381 GiB; user supplied 22.352 GiB. Using in-core AOs.


         ------------------------------------------------------------
                                     CPHF                           
                                  Rob Parrish                       
         ------------------------------------------------------------

  ==> Geometry <==

    Molecular point group: c1
    Full point group: C1

    Geometry (in Angstrom), charge = 0, multiplicity = 1:

       Center              X                  Y                   Z               Mass       
    ------------   -----------------  -----------------  -----------------  -----------------
         O            0.426580346660    -1.183843410618     0.693847931389    15.994914619570
         C           -1.123199353340     0.342211089382    -0.418846068611    12.000000000000
         C            0.239464346660    -0.193274310618    -0.009362368611    12.000000000000
         C            1.424813346660     0.608049689382    -0.506336368611    12.000000000000
         C           -1.632543653340     1.259519689382     0.707745631389    12.000000000000
         C           -2.110399653340    -0.862734310618    -0.570767368611    12.000000000000
         C            2.756560346660     0.088248689382     0.008437631389    12.000000000000
         H           -1.065720653340     0.866425689382    -1.332587368611     1.007825032230
         H            1.269653346660     1.658503689382    -0.221184368611     1.007825032230
         H            1.393592346660     0.604921689382    -1.604613368611     1.007825032230
         H           -0.961616653340     2.114900689382     0.833047631389     1.007825032230
         H           -1.694133653340     0.725828689382     1.662528631389     1.007825032230
         H           -2.626384653340     1.645144689382     0.462190631389     1.007825032230
         H           -1.765730653340    -1.548036310618    -1.352514368611     1.007825032230
         H           -2.184573653340    -1.429213310618     0.360172631389     1.007825032230
         H           -3.104185653340    -0.495599310618    -0.846989368611     1.007825032230
         H            2.781604346660     0.111251689382     1.099145631389     1.007825032230
         H            2.907665346660    -0.947326310618    -0.300748368611     1.007825032230
         H            3.581856346660     0.693126689382    -0.374295368611     1.007825032230

  Nuclear repulsion =  314.727820164362981
  Reference energy  = -309.173328678998701

  ==> Basis Set <==

  Basis Set: AUG-CC-PVTZ
    Blend: AUG-CC-PVTZ
    Number of shells: 206
    Number of basis function: 598
    Number of Cartesian functions: 685
    Spherical Harmonics?: true
    Max angular momentum: 3

  ==> CGRSolver (by Rob Parrish) <==

   Number of roots    =         1
   Preconditioning    =    JACOBI
   Convergence cutoff =     1E-06
   Maximum iterations =       100

  ==> CPHFRHamiltonian (by Rob Parrish) <== 

  ==> MemDFJK: Density-Fitted J/K Matrices <==

    J tasked:                   Yes
    K tasked:                   Yes
    wK tasked:                   No
    OpenMP threads:               8
    Memory [MiB]:             22888
    Algorithm:                 Disk
    Schwarz Cutoff:           1E-12
    Mask sparsity (%):       3.9530
    Fitting Condition:        1E-10

   => Auxiliary Basis Set <=

  Basis Set: (AUG-CC-PVTZ AUX)
    Blend: AUG-CC-PVTZ-JKFIT
    Number of shells: 378
    Number of basis function: 1280
    Number of Cartesian functions: 1577
    Spherical Harmonics?: true
    Max angular momentum: 4

  ==> CPHF Iterations <==

  => Iterations <=

             Iter  Converged  Remaining    Residual
  CGR           1          0          1   1.129E-01
  CGR           2          0          1   3.283E-02
  CGR           3          0          1   1.040E-02
  CGR           4          0          1   3.578E-03
  CGR           5          0          1   1.262E-03
  CGR           6          0          1   4.035E-04
  CGR           7          0          1   1.038E-04
  CGR           8          0          1   3.036E-05
  CGR           9          0          1   1.035E-05
  CGR          10          0          1   5.576E-06
  CGR          11          0          1   2.129E-06
  CGR          12          1          0   7.002E-07

    CGRSolver converged.

	-----------------------------------------------------------
	 ==================> DF-MP2 Energies <==================== 
	-----------------------------------------------------------
	 Reference Energy          =    -309.1733286789987005 [Eh]
	 Singles Energy            =      -0.0000000000000000 [Eh]
	 Same-Spin Energy          =      -0.3169828524448087 [Eh]
	 Opposite-Spin Energy      =      -1.1035469905556541 [Eh]
	 Correlation Energy        =      -1.4205298430004629 [Eh]
	 Total Energy              =    -310.5938585219991523 [Eh]
	-----------------------------------------------------------
	 ================> DF-SCS-MP2 Energies <================== 
	-----------------------------------------------------------
	 SCS Same-Spin Scale       =       0.3333333333333333 [-]
	 SCS Opposite-Spin Scale   =       1.2000000000000000 [-]
	 SCS Same-Spin Energy      =      -0.1056609508149362 [Eh]
	 SCS Opposite-Spin Energy  =      -1.3242563886667849 [Eh]
	 SCS Correlation Energy    =      -1.4299173394817211 [Eh]
	 SCS Total Energy          =    -310.6032460184804336 [Eh]
	-----------------------------------------------------------



Properties will be evaluated at   0.000000,  -0.000000,  -0.000000 [a0]

Properties computed using the MP2 density matrix

  Nuclear Dipole Moment: [e a0]
     X:    -1.3741      Y:     3.7441      Z:    -1.5115

  Electronic Dipole Moment: [e a0]
     X:     1.1709      Y:    -2.8702      Z:     0.9402

  Dipole Moment: [e a0]
     X:    -0.2032      Y:     0.8739      Z:    -0.5713     Total:     1.0637

  Dipole Moment: [D]
     X:    -0.5166      Y:     2.2212      Z:    -1.4522     Total:     2.7036


*** tstop() called on node37.bme.utexas.edu at Mon Nov  2 17:24:06 2020
Module time:
	user time   =     710.10 seconds =      11.83 minutes
	system time =      88.76 seconds =       1.48 minutes
	total time  =        151 seconds =       2.52 minutes
Total time:
	user time   =     979.80 seconds =      16.33 minutes
	system time =     148.34 seconds =       2.47 minutes
	total time  =        228 seconds =       3.80 minutes

    Psi4 stopped on: Monday, 02 November 2020 05:24PM
    Psi4 wall time for execution: 0:03:48.27

*** Psi4 exiting successfully. Buy a developer a beer!
