
    -----------------------------------------------------------------------
          Psi4: An Open-Source Ab Initio Electronic Structure Package
                               Psi4 1.3.2 release

                         Git: Rev {HEAD} ecbda83 


    R. M. Parrish, L. A. Burns, D. G. A. Smith, A. C. Simmonett,
    A. E. DePrince III, E. G. Hohenstein, U. Bozkaya, A. Yu. Sokolov,
    R. Di Remigio, R. M. Richard, J. F. Gonthier, A. M. James,
    H. R. McAlexander, A. Kumar, M. Saitow, X. Wang, B. P. Pritchard,
    P. Verma, H. F. Schaefer III, K. Patkowski, R. A. King, E. F. Valeev,
    F. A. Evangelista, J. M. Turney, T. D. Crawford, and C. D. Sherrill,
    J. Chem. Theory Comput. 13(7) pp 3185--3197 (2017).
    (doi: 10.1021/acs.jctc.7b00174)


                         Additional Contributions by
    P. Kraus, H. Kruse, M. H. Lechner, M. C. Schieber, R. A. Shaw,
    A. Alenaizan, R. Galvelis, Z. L. Glick, S. Lehtola, and J. P. Misiewicz

    -----------------------------------------------------------------------


    Psi4 started on: Tuesday, 02 February 2021 03:25AM

    Process ID: 3432975
    Host:       node88.bme.utexas.edu
    PSIDATADIR: /home/xy3866/psi4conda/share/psi4
    Memory:     500.0 MiB
    Threads:    8
    
  ==> Input File <==

--------------------------------------------------------------------------
#psi4
#
memory 32 gb

molecule  {
0 1
  O       -0.0101440     2.0708820    -0.1140410
  N        0.2351990    -0.2177110    -0.3583720
  C       -0.4908340    -1.4342940    -0.0290780
  C       -1.9502640    -0.9583450    -0.0482810
  C       -1.8489090     0.4999680     0.4010950
  C       -0.3572652     0.7598654    -0.0957634
  C        1.6617300    -0.1844710    -0.6214880
  C        2.4978900    -0.3314020     0.6460640
  H       -0.2060500    -1.8213230     0.9608810
  H       -0.2853850    -2.2161620    -0.7686800
  H       -2.5951790    -1.5710950     0.5868370
  H       -2.3326610    -1.0086390    -1.0720610
  H       -1.8916900     0.5931740     1.4933710
  H       -2.6106570     1.1621840    -0.0164710
  H        1.8952280    -0.9774960    -1.3410860
  H        1.8622980     0.7788290    -1.0968800
  H        2.2724650     0.4877290     1.3331980
  H        2.2931660    -1.2799200     1.1504100
  H        3.5653110    -0.2984830     0.4074420
units angstrom
no_reorient  #important for SAPT in psi4, default
symmetry c1  #important for SAPT in psi4, default
}

set PROPERTIES_ORIGIN ["COM"]
properties('MP2/aug-cc-pvtz', properties = ['dipole'])
--------------------------------------------------------------------------

  Memory set to  29.802 GiB by Python driver.
    SCF Algorithm Type (re)set to DF.

*** tstart() called on node88.bme.utexas.edu
*** at Tue Feb  2 03:25:52 2021

   => Loading Basis Set <=

    Name: AUG-CC-PVTZ
    Role: ORBITAL
    Keyword: BASIS
    atoms 1    entry O          line   327 file /home/xy3866/psi4conda/share/psi4/basis/aug-cc-pvtz.gbs 
    atoms 2    entry N          line   281 file /home/xy3866/psi4conda/share/psi4/basis/aug-cc-pvtz.gbs 
    atoms 3-8  entry C          line   235 file /home/xy3866/psi4conda/share/psi4/basis/aug-cc-pvtz.gbs 
    atoms 9-19 entry H          line    36 file /home/xy3866/psi4conda/share/psi4/basis/aug-cc-pvtz.gbs 


         ---------------------------------------------------------
                                   SCF
               by Justin Turney, Rob Parrish, Andy Simmonett
                          and Daniel G. A. Smith
                              RHF Reference
                        8 Threads,  30517 MiB Core
         ---------------------------------------------------------

  ==> Geometry <==

    Molecular point group: c1
    Full point group: C1

    Geometry (in Angstrom), charge = 0, multiplicity = 1:

       Center              X                  Y                   Z               Mass       
    ------------   -----------------  -----------------  -----------------  -----------------
         O           -0.003614935233     2.034701137421    -0.094922194515    15.994914619570
         N            0.241728064767    -0.253891862579    -0.339253194515    14.003074004430
         C           -0.484304935233    -1.470474862579    -0.009959194515    12.000000000000
         C           -1.943734935233    -0.994525862579    -0.029162194515    12.000000000000
         C           -1.842379935233     0.463787137421     0.420213805485    12.000000000000
         C           -0.350736135233     0.723684537421    -0.076644594515    12.000000000000
         C            1.668259064767    -0.220651862579    -0.602369194515    12.000000000000
         C            2.504419064767    -0.367582862579     0.665182805485    12.000000000000
         H           -0.199520935233    -1.857503862579     0.979999805485     1.007825032230
         H           -0.278855935233    -2.252342862579    -0.749561194515     1.007825032230
         H           -2.588649935233    -1.607275862579     0.605955805485     1.007825032230
         H           -2.326131935233    -1.044819862579    -1.052942194515     1.007825032230
         H           -1.885160935233     0.556993137421     1.512489805485     1.007825032230
         H           -2.604127935233     1.126003137421     0.002647805485     1.007825032230
         H            1.901757064767    -1.013676862579    -1.321967194515     1.007825032230
         H            1.868827064767     0.742648137421    -1.077761194515     1.007825032230
         H            2.278994064767     0.451548137421     1.352316805485     1.007825032230
         H            2.299695064767    -1.316100862579     1.169528805485     1.007825032230
         H            3.571840064767    -0.334663862579     0.426560805485     1.007825032230

  Running in c1 symmetry.

  Rotational constants: A =      0.10615  B =      0.06053  C =      0.04359 [cm^-1]
  Rotational constants: A =   3182.43406  B =   1814.78239  C =   1306.81483 [MHz]
  Nuclear repulsion =  396.440075754802820

  Charge       = 0
  Multiplicity = 1
  Electrons    = 62
  Nalpha       = 31
  Nbeta        = 31

  ==> Algorithm <==

  SCF Algorithm Type is DF.
  DIIS enabled.
  MOM disabled.
  Fractional occupation disabled.
  Guess Type is SAD.
  Energy threshold   = 1.00e-10
  Density threshold  = 1.00e-10
  Integral threshold = 0.00e+00

  ==> Primary Basis <==

  Basis Set: AUG-CC-PVTZ
    Blend: AUG-CC-PVTZ
    Number of shells: 211
    Number of basis function: 621
    Number of Cartesian functions: 715
    Spherical Harmonics?: true
    Max angular momentum: 3

   => Loading Basis Set <=

    Name: (AUG-CC-PVTZ AUX)
    Role: JKFIT
    Keyword: DF_BASIS_SCF
    atoms 1    entry O          line   286 file /home/xy3866/psi4conda/share/psi4/basis/aug-cc-pvtz-jkfit.gbs 
    atoms 2    entry N          line   224 file /home/xy3866/psi4conda/share/psi4/basis/aug-cc-pvtz-jkfit.gbs 
    atoms 3-8  entry C          line   162 file /home/xy3866/psi4conda/share/psi4/basis/aug-cc-pvtz-jkfit.gbs 
    atoms 9-19 entry H          line    70 file /home/xy3866/psi4conda/share/psi4/basis/aug-cc-pvtz-jkfit.gbs 

  ==> Pre-Iterations <==

   -------------------------------------------------------
    Irrep   Nso     Nmo     Nalpha   Nbeta   Ndocc  Nsocc
   -------------------------------------------------------
     A        621     621       0       0       0       0
   -------------------------------------------------------
    Total     621     621      31      31      31       0
   -------------------------------------------------------

  ==> Integral Setup <==

  DFHelper Memory: AOs need 3.836 GiB; user supplied 22.352 GiB. Using in-core AOs.

  ==> MemDFJK: Density-Fitted J/K Matrices <==

    J tasked:                   Yes
    K tasked:                   Yes
    wK tasked:                   No
    OpenMP threads:               8
    Memory [MiB]:             22888
    Algorithm:                 Disk
    Schwarz Cutoff:           1E-12
    Mask sparsity (%):       3.1921
    Fitting Condition:        1E-10

   => Auxiliary Basis Set <=

  Basis Set: (AUG-CC-PVTZ AUX)
    Blend: AUG-CC-PVTZ-JKFIT
    Number of shells: 394
    Number of basis function: 1338
    Number of Cartesian functions: 1653
    Spherical Harmonics?: true
    Max angular momentum: 4

  Minimum eigenvalue in the overlap matrix is 2.6516722911E-06.
  Using Symmetric Orthogonalization.

  SCF Guess: Superposition of Atomic Densities via on-the-fly atomic UHF.

  ==> Iterations <==

                           Total Energy        Delta E     RMS |[F,P]|

   @DF-RHF iter SAD:  -362.83321992532581   -3.62833e+02   0.00000e+00 
   @DF-RHF iter   1:  -362.71587280768978    1.17347e-01   1.16881e-03 DIIS
   @DF-RHF iter   2:  -362.94175891526862   -2.25886e-01   6.60538e-04 DIIS
   @DF-RHF iter   3:  -363.00484319518796   -6.30843e-02   1.55580e-04 DIIS
   @DF-RHF iter   4:  -363.00959937370811   -4.75618e-03   6.67988e-05 DIIS
   @DF-RHF iter   5:  -363.01058296626962   -9.83593e-04   1.15172e-05 DIIS
   @DF-RHF iter   6:  -363.01062930753534   -4.63413e-05   3.81442e-06 DIIS
   @DF-RHF iter   7:  -363.01063438177937   -5.07424e-06   1.18075e-06 DIIS
   @DF-RHF iter   8:  -363.01063501196791   -6.30189e-07   3.89595e-07 DIIS
   @DF-RHF iter   9:  -363.01063508693409   -7.49662e-08   1.20205e-07 DIIS
   @DF-RHF iter  10:  -363.01063509333574   -6.40165e-09   3.96983e-08 DIIS
   @DF-RHF iter  11:  -363.01063509394635   -6.10612e-10   1.06331e-08 DIIS
   @DF-RHF iter  12:  -363.01063509400285   -5.65024e-11   3.99460e-09 DIIS
   @DF-RHF iter  13:  -363.01063509401195   -9.09495e-12   1.50611e-09 DIIS
   @DF-RHF iter  14:  -363.01063509401229   -3.41061e-13   5.75826e-10 DIIS
   @DF-RHF iter  15:  -363.01063509401502   -2.72848e-12   1.92780e-10 DIIS
   @DF-RHF iter  16:  -363.01063509401496    5.68434e-14   6.33699e-11 DIIS
  Energy and wave function converged.


  ==> Post-Iterations <==

    Orbital Energies [Eh]
    ---------------------

    Doubly Occupied:                                                      

       1A    -20.469919     2A    -15.611416     3A    -11.322127  
       4A    -11.292326     5A    -11.278656     6A    -11.243959  
       7A    -11.238025     8A    -11.231680     9A     -1.384763  
      10A     -1.226397    11A     -1.099297    12A     -1.035287  
      13A     -0.977892    14A     -0.894383    15A     -0.844208  
      16A     -0.736587    17A     -0.719628    18A     -0.682396  
      19A     -0.629354    20A     -0.620880    21A     -0.593282  
      22A     -0.577965    23A     -0.566463    24A     -0.537189  
      25A     -0.521811    26A     -0.513971    27A     -0.504025  
      28A     -0.489530    29A     -0.473931    30A     -0.372440  
      31A     -0.368207  

    Virtual:                                                              

      32A      0.020954    33A      0.029902    34A      0.031890  
      35A      0.040049    36A      0.048715    37A      0.049372  
      38A      0.054547    39A      0.058154    40A      0.063834  
      41A      0.073220    42A      0.076962    43A      0.094335  
      44A      0.101765    45A      0.108310    46A      0.112090  
      47A      0.114197    48A      0.115952    49A      0.118433  
      50A      0.128801    51A      0.131542    52A      0.136135  
      53A      0.138510    54A      0.145031    55A      0.149301  
      56A      0.151403    57A      0.156856    58A      0.158662  
      59A      0.163815    60A      0.171710    61A      0.176661  
      62A      0.186658    63A      0.192537    64A      0.195249  
      65A      0.205605    66A      0.219146    67A      0.220385  
      68A      0.227062    69A      0.244055    70A      0.245079  
      71A      0.256589    72A      0.262429    73A      0.267666  
      74A      0.271179    75A      0.273648    76A      0.281621  
      77A      0.287813    78A      0.291976    79A      0.300876  
      80A      0.304020    81A      0.309485    82A      0.311742  
      83A      0.318566    84A      0.325759    85A      0.328054  
      86A      0.329458    87A      0.340878    88A      0.341296  
      89A      0.347380    90A      0.356952    91A      0.361982  
      92A      0.365148    93A      0.368029    94A      0.370070  
      95A      0.380277    96A      0.383804    97A      0.396172  
      98A      0.396379    99A      0.397930   100A      0.402507  
     101A      0.408943   102A      0.411309   103A      0.415903  
     104A      0.419894   105A      0.427171   106A      0.430053  
     107A      0.435036   108A      0.439513   109A      0.444803  
     110A      0.448752   111A      0.457689   112A      0.461627  
     113A      0.463259   114A      0.470655   115A      0.473954  
     116A      0.475521   117A      0.483249   118A      0.488089  
     119A      0.490751   120A      0.494416   121A      0.504785  
     122A      0.512684   123A      0.516457   124A      0.522474  
     125A      0.527001   126A      0.528718   127A      0.534939  
     128A      0.540565   129A      0.542308   130A      0.549201  
     131A      0.561014   132A      0.564315   133A      0.568104  
     134A      0.574793   135A      0.583215   136A      0.586656  
     137A      0.598138   138A      0.602714   139A      0.604424  
     140A      0.611648   141A      0.618612   142A      0.625573  
     143A      0.631224   144A      0.636581   145A      0.640496  
     146A      0.648375   147A      0.659772   148A      0.662489  
     149A      0.670955   150A      0.682944   151A      0.690923  
     152A      0.696609   153A      0.703612   154A      0.729377  
     155A      0.735360   156A      0.750139   157A      0.758620  
     158A      0.771337   159A      0.775714   160A      0.786985  
     161A      0.787782   162A      0.794696   163A      0.804924  
     164A      0.813075   165A      0.816065   166A      0.817244  
     167A      0.830804   168A      0.831845   169A      0.855634  
     170A      0.857056   171A      0.866709   172A      0.867998  
     173A      0.876822   174A      0.879402   175A      0.889283  
     176A      0.892201   177A      0.897893   178A      0.904072  
     179A      0.908320   180A      0.916301   181A      0.925335  
     182A      0.929276   183A      0.933785   184A      0.939927  
     185A      0.944179   186A      0.949615   187A      0.956505  
     188A      0.965029   189A      0.974985   190A      0.978117  
     191A      0.983204   192A      0.990587   193A      1.001055  
     194A      1.005347   195A      1.019501   196A      1.020420  
     197A      1.023854   198A      1.030094   199A      1.043124  
     200A      1.049407   201A      1.052711   202A      1.059261  
     203A      1.065695   204A      1.078031   205A      1.084039  
     206A      1.087584   207A      1.094862   208A      1.096477  
     209A      1.108655   210A      1.117127   211A      1.123095  
     212A      1.127850   213A      1.131936   214A      1.136470  
     215A      1.137274   216A      1.145675   217A      1.159200  
     218A      1.167832   219A      1.171566   220A      1.182626  
     221A      1.198224   222A      1.201733   223A      1.204072  
     224A      1.216684   225A      1.220427   226A      1.225647  
     227A      1.230232   228A      1.238135   229A      1.243861  
     230A      1.251280   231A      1.256505   232A      1.267099  
     233A      1.271275   234A      1.299260   235A      1.305686  
     236A      1.309081   237A      1.316710   238A      1.323411  
     239A      1.327454   240A      1.339326   241A      1.347177  
     242A      1.348990   243A      1.364949   244A      1.373830  
     245A      1.382223   246A      1.392955   247A      1.400921  
     248A      1.404133   249A      1.413298   250A      1.432932  
     251A      1.437985   252A      1.444787   253A      1.454369  
     254A      1.460850   255A      1.469069   256A      1.479635  
     257A      1.486111   258A      1.487423   259A      1.508111  
     260A      1.517258   261A      1.524698   262A      1.536195  
     263A      1.547032   264A      1.551671   265A      1.561571  
     266A      1.569446   267A      1.575410   268A      1.585130  
     269A      1.599820   270A      1.607652   271A      1.623018  
     272A      1.625043   273A      1.635264   274A      1.640594  
     275A      1.645162   276A      1.653870   277A      1.657170  
     278A      1.679530   279A      1.683487   280A      1.694905  
     281A      1.699837   282A      1.701167   283A      1.704735  
     284A      1.715768   285A      1.721794   286A      1.730495  
     287A      1.740510   288A      1.746469   289A      1.750746  
     290A      1.761636   291A      1.768467   292A      1.779129  
     293A      1.788906   294A      1.795303   295A      1.801058  
     296A      1.815201   297A      1.825274   298A      1.832617  
     299A      1.839378   300A      1.843817   301A      1.849611  
     302A      1.860199   303A      1.865541   304A      1.879460  
     305A      1.890882   306A      1.902118   307A      1.913914  
     308A      1.916678   309A      1.930325   310A      1.937946  
     311A      1.950086   312A      1.967166   313A      1.974337  
     314A      1.985505   315A      1.993414   316A      1.997535  
     317A      2.006416   318A      2.013606   319A      2.021273  
     320A      2.028685   321A      2.047229   322A      2.055756  
     323A      2.064669   324A      2.069950   325A      2.087679  
     326A      2.104587   327A      2.116695   328A      2.137035  
     329A      2.140400   330A      2.147482   331A      2.157095  
     332A      2.178473   333A      2.205457   334A      2.212695  
     335A      2.218952   336A      2.229620   337A      2.234432  
     338A      2.242486   339A      2.243955   340A      2.257690  
     341A      2.271242   342A      2.277666   343A      2.282970  
     344A      2.297015   345A      2.313537   346A      2.328267  
     347A      2.334748   348A      2.350517   349A      2.362961  
     350A      2.371731   351A      2.395215   352A      2.406296  
     353A      2.422708   354A      2.438267   355A      2.443166  
     356A      2.458429   357A      2.487534   358A      2.496272  
     359A      2.498410   360A      2.513579   361A      2.525574  
     362A      2.562712   363A      2.571556   364A      2.595306  
     365A      2.601552   366A      2.632779   367A      2.639378  
     368A      2.643514   369A      2.668573   370A      2.712344  
     371A      2.726374   372A      2.752399   373A      2.758180  
     374A      2.780703   375A      2.791232   376A      2.833323  
     377A      2.843953   378A      2.866123   379A      2.869262  
     380A      2.918524   381A      2.937155   382A      2.977701  
     383A      3.018214   384A      3.039855   385A      3.086640  
     386A      3.098056   387A      3.102594   388A      3.116947  
     389A      3.160678   390A      3.213200   391A      3.224362  
     392A      3.299590   393A      3.316498   394A      3.331985  
     395A      3.342417   396A      3.371720   397A      3.414890  
     398A      3.438808   399A      3.452594   400A      3.461982  
     401A      3.478862   402A      3.499215   403A      3.511846  
     404A      3.531462   405A      3.548016   406A      3.566906  
     407A      3.572644   408A      3.594540   409A      3.606239  
     410A      3.622963   411A      3.632842   412A      3.649066  
     413A      3.657506   414A      3.667264   415A      3.689505  
     416A      3.705704   417A      3.706282   418A      3.722392  
     419A      3.730775   420A      3.750639   421A      3.754570  
     422A      3.769135   423A      3.782386   424A      3.803635  
     425A      3.813016   426A      3.815128   427A      3.825409  
     428A      3.834522   429A      3.846972   430A      3.856724  
     431A      3.859400   432A      3.879846   433A      3.885225  
     434A      3.895160   435A      3.906107   436A      3.924372  
     437A      3.934793   438A      3.947979   439A      3.953172  
     440A      3.977088   441A      3.980283   442A      3.992507  
     443A      3.994428   444A      3.998680   445A      4.015441  
     446A      4.018791   447A      4.039566   448A      4.049150  
     449A      4.055590   450A      4.070362   451A      4.081606  
     452A      4.092486   453A      4.096036   454A      4.114575  
     455A      4.127263   456A      4.148405   457A      4.151336  
     458A      4.181159   459A      4.189861   460A      4.203860  
     461A      4.226468   462A      4.242485   463A      4.246029  
     464A      4.251960   465A      4.272284   466A      4.275154  
     467A      4.293861   468A      4.307406   469A      4.315377  
     470A      4.328435   471A      4.340219   472A      4.353502  
     473A      4.374250   474A      4.381840   475A      4.406806  
     476A      4.422063   477A      4.443006   478A      4.453016  
     479A      4.467828   480A      4.475771   481A      4.476673  
     482A      4.498417   483A      4.517414   484A      4.531756  
     485A      4.544415   486A      4.572882   487A      4.586898  
     488A      4.592498   489A      4.622883   490A      4.627873  
     491A      4.642080   492A      4.659351   493A      4.682081  
     494A      4.687526   495A      4.709185   496A      4.715936  
     497A      4.724372   498A      4.750712   499A      4.801648  
     500A      4.818939   501A      4.824412   502A      4.838174  
     503A      4.850889   504A      4.868280   505A      4.879044  
     506A      4.887922   507A      4.907517   508A      4.913937  
     509A      4.937968   510A      4.941400   511A      4.954245  
     512A      4.962631   513A      4.986780   514A      4.991504  
     515A      5.020770   516A      5.026466   517A      5.034508  
     518A      5.049711   519A      5.080478   520A      5.090804  
     521A      5.094430   522A      5.125141   523A      5.132982  
     524A      5.149354   525A      5.170808   526A      5.177327  
     527A      5.194439   528A      5.202457   529A      5.226420  
     530A      5.251698   531A      5.269776   532A      5.292472  
     533A      5.298484   534A      5.324505   535A      5.351917  
     536A      5.361887   537A      5.375595   538A      5.386972  
     539A      5.395804   540A      5.422843   541A      5.426814  
     542A      5.444102   543A      5.454793   544A      5.472376  
     545A      5.498641   546A      5.503652   547A      5.527300  
     548A      5.532666   549A      5.569148   550A      5.587943  
     551A      5.602869   552A      5.614590   553A      5.646393  
     554A      5.669631   555A      5.682483   556A      5.703694  
     557A      5.717635   558A      5.732492   559A      5.762936  
     560A      5.771983   561A      5.776275   562A      5.826193  
     563A      5.837549   564A      5.895737   565A      5.919979  
     566A      5.933337   567A      5.971424   568A      5.993686  
     569A      6.018928   570A      6.062422   571A      6.067612  
     572A      6.096350   573A      6.132735   574A      6.159435  
     575A      6.177548   576A      6.189428   577A      6.226510  
     578A      6.234965   579A      6.262013   580A      6.282389  
     581A      6.301777   582A      6.317790   583A      6.371094  
     584A      6.395473   585A      6.489089   586A      6.524476  
     587A      6.553505   588A      6.577024   589A      6.595145  
     590A      6.662256   591A      6.716636   592A      6.797909  
     593A      6.806673   594A      6.815044   595A      6.856033  
     596A      6.875352   597A      6.890323   598A      6.944781  
     599A      6.969510   600A      7.009286   601A      7.034527  
     602A      7.087446   603A      7.106998   604A      7.130723  
     605A      7.237479   606A      7.287265   607A      7.483546  
     608A      7.500361   609A      7.669307   610A      7.797549  
     611A      7.818355   612A      8.066753   613A      8.118416  
     614A     14.869001   615A     17.868038   616A     17.991144  
     617A     18.909417   618A     19.173777   619A     19.739757  
     620A     19.929621   621A     22.483836  

    Final Occupation by Irrep:
              A 
    DOCC [    31 ]

  @DF-RHF Final Energy:  -363.01063509401496

   => Energetics <=

    Nuclear Repulsion Energy =            396.4400757548028196
    One-Electron Energy =               -1278.7854337224480332
    Two-Electron Energy =                 519.3347228736303123
    Total Energy =                       -363.0106350940149014

Computation Completed

*** tstop() called on node88.bme.utexas.edu at Tue Feb  2 03:26:45 2021
Module time:
	user time   =     233.24 seconds =       3.89 minutes
	system time =      32.51 seconds =       0.54 minutes
	total time  =         53 seconds =       0.88 minutes
Total time:
	user time   =     233.24 seconds =       3.89 minutes
	system time =      32.51 seconds =       0.54 minutes
	total time  =         53 seconds =       0.88 minutes
   => Loading Basis Set <=

    Name: (AUG-CC-PVTZ AUX)
    Role: RIFIT
    Keyword: DF_BASIS_MP2
    atoms 1    entry O          line   264 file /home/xy3866/psi4conda/share/psi4/basis/aug-cc-pvtz-ri.gbs 
    atoms 2    entry N          line   206 file /home/xy3866/psi4conda/share/psi4/basis/aug-cc-pvtz-ri.gbs 
    atoms 3-8  entry C          line   148 file /home/xy3866/psi4conda/share/psi4/basis/aug-cc-pvtz-ri.gbs 
    atoms 9-19 entry H          line    30 file /home/xy3866/psi4conda/share/psi4/basis/aug-cc-pvtz-ri.gbs 


*** tstart() called on node88.bme.utexas.edu
*** at Tue Feb  2 03:26:46 2021


  //>>>>>>>>>>>>>>>>>>>>>>>>>>>>>>>>>>>//
  //               DFMP2               //
  //<<<<<<<<<<<<<<<<<<<<<<<<<<<<<<<<<<<//

	 --------------------------------------------------------
	                          DF-MP2                         
	      2nd-Order Density-Fitted Moller-Plesset Theory     
	              RMP2 Wavefunction,   8 Threads             
	                                                         
	        Rob Parrish, Justin Turney, Andy Simmonett,      
	           Ed Hohenstein, and C. David Sherrill          
	 --------------------------------------------------------

   => Auxiliary Basis Set <=

  Basis Set: (AUG-CC-PVTZ AUX)
    Blend: AUG-CC-PVTZ-RI
    Number of shells: 378
    Number of basis function: 1354
    Number of Cartesian functions: 1693
    Spherical Harmonics?: true
    Max angular momentum: 4

	 --------------------------------------------------------
	                 NBF =   621, NAUX =  1354
	 --------------------------------------------------------
	   CLASS    FOCC     OCC    AOCC    AVIR     VIR    FVIR
	   PAIRS       0      31      31     590     590       0
	 --------------------------------------------------------

  DFHelper Memory: AOs need 3.836 GiB; user supplied 22.352 GiB. Using in-core AOs.


         ------------------------------------------------------------
                                     CPHF                           
                                  Rob Parrish                       
         ------------------------------------------------------------

  ==> Geometry <==

    Molecular point group: c1
    Full point group: C1

    Geometry (in Angstrom), charge = 0, multiplicity = 1:

       Center              X                  Y                   Z               Mass       
    ------------   -----------------  -----------------  -----------------  -----------------
         O           -0.003614935233     2.034701137421    -0.094922194515    15.994914619570
         N            0.241728064767    -0.253891862579    -0.339253194515    14.003074004430
         C           -0.484304935233    -1.470474862579    -0.009959194515    12.000000000000
         C           -1.943734935233    -0.994525862579    -0.029162194515    12.000000000000
         C           -1.842379935233     0.463787137421     0.420213805485    12.000000000000
         C           -0.350736135233     0.723684537421    -0.076644594515    12.000000000000
         C            1.668259064767    -0.220651862579    -0.602369194515    12.000000000000
         C            2.504419064767    -0.367582862579     0.665182805485    12.000000000000
         H           -0.199520935233    -1.857503862579     0.979999805485     1.007825032230
         H           -0.278855935233    -2.252342862579    -0.749561194515     1.007825032230
         H           -2.588649935233    -1.607275862579     0.605955805485     1.007825032230
         H           -2.326131935233    -1.044819862579    -1.052942194515     1.007825032230
         H           -1.885160935233     0.556993137421     1.512489805485     1.007825032230
         H           -2.604127935233     1.126003137421     0.002647805485     1.007825032230
         H            1.901757064767    -1.013676862579    -1.321967194515     1.007825032230
         H            1.868827064767     0.742648137421    -1.077761194515     1.007825032230
         H            2.278994064767     0.451548137421     1.352316805485     1.007825032230
         H            2.299695064767    -1.316100862579     1.169528805485     1.007825032230
         H            3.571840064767    -0.334663862579     0.426560805485     1.007825032230

  Nuclear repulsion =  396.440075754802820
  Reference energy  = -363.010635094014958

  ==> Basis Set <==

  Basis Set: AUG-CC-PVTZ
    Blend: AUG-CC-PVTZ
    Number of shells: 211
    Number of basis function: 621
    Number of Cartesian functions: 715
    Spherical Harmonics?: true
    Max angular momentum: 3

  ==> CGRSolver (by Rob Parrish) <==

   Number of roots    =         1
   Preconditioning    =    JACOBI
   Convergence cutoff =     1E-06
   Maximum iterations =       100

  ==> CPHFRHamiltonian (by Rob Parrish) <== 

  ==> MemDFJK: Density-Fitted J/K Matrices <==

    J tasked:                   Yes
    K tasked:                   Yes
    wK tasked:                   No
    OpenMP threads:               8
    Memory [MiB]:             22888
    Algorithm:                 Disk
    Schwarz Cutoff:           1E-12
    Mask sparsity (%):       3.1921
    Fitting Condition:        1E-10

   => Auxiliary Basis Set <=

  Basis Set: (AUG-CC-PVTZ AUX)
    Blend: AUG-CC-PVTZ-JKFIT
    Number of shells: 394
    Number of basis function: 1338
    Number of Cartesian functions: 1653
    Spherical Harmonics?: true
    Max angular momentum: 4

  ==> CPHF Iterations <==

  => Iterations <=

             Iter  Converged  Remaining    Residual
  CGR           1          0          1   1.313E-01
  CGR           2          0          1   4.436E-02
  CGR           3          0          1   1.963E-02
  CGR           4          0          1   6.274E-03
  CGR           5          0          1   2.189E-03
  CGR           6          0          1   9.119E-04
  CGR           7          0          1   2.740E-04
  CGR           8          0          1   9.150E-05
  CGR           9          0          1   2.597E-05
  CGR          10          0          1   6.964E-06
  CGR          11          0          1   1.949E-06
  CGR          12          1          0   5.088E-07

    CGRSolver converged.

	-----------------------------------------------------------
	 ==================> DF-MP2 Energies <==================== 
	-----------------------------------------------------------
	 Reference Energy          =    -363.0106350940149582 [Eh]
	 Singles Energy            =      -0.0000000000000000 [Eh]
	 Same-Spin Energy          =      -0.3779621077062192 [Eh]
	 Opposite-Spin Energy      =      -1.2495425015735724 [Eh]
	 Correlation Energy        =      -1.6275046092797916 [Eh]
	 Total Energy              =    -364.6381397032947689 [Eh]
	-----------------------------------------------------------
	 ================> DF-SCS-MP2 Energies <================== 
	-----------------------------------------------------------
	 SCS Same-Spin Scale       =       0.3333333333333333 [-]
	 SCS Opposite-Spin Scale   =       1.2000000000000000 [-]
	 SCS Same-Spin Energy      =      -0.1259873692354064 [Eh]
	 SCS Opposite-Spin Energy  =      -1.4994510018882867 [Eh]
	 SCS Correlation Energy    =      -1.6254383711236930 [Eh]
	 SCS Total Energy          =    -364.6360734651386792 [Eh]
	-----------------------------------------------------------



Properties will be evaluated at  -0.000000,   0.000000,   0.000000 [a0]

Properties computed using the MP2 density matrix

  Nuclear Dipole Moment: [e a0]
     X:     1.9105      Y:    -6.1292      Z:     1.7323

  Electronic Dipole Moment: [e a0]
     X:    -1.8697      Y:     3.9543      Z:    -1.6950

  Dipole Moment: [e a0]
     X:     0.0407      Y:    -2.1748      Z:     0.0373     Total:     2.1755

  Dipole Moment: [D]
     X:     0.1035      Y:    -5.5279      Z:     0.0948     Total:     5.5296


*** tstop() called on node88.bme.utexas.edu at Tue Feb  2 03:28:45 2021
Module time:
	user time   =     695.01 seconds =      11.58 minutes
	system time =      40.73 seconds =       0.68 minutes
	total time  =        119 seconds =       1.98 minutes
Total time:
	user time   =     928.42 seconds =      15.47 minutes
	system time =      73.25 seconds =       1.22 minutes
	total time  =        173 seconds =       2.88 minutes

    Psi4 stopped on: Tuesday, 02 February 2021 03:28AM
    Psi4 wall time for execution: 0:02:53.47

*** Psi4 exiting successfully. Buy a developer a beer!
