
    -----------------------------------------------------------------------
          Psi4: An Open-Source Ab Initio Electronic Structure Package
                               Psi4 1.3.2 release

                         Git: Rev {HEAD} ecbda83 


    R. M. Parrish, L. A. Burns, D. G. A. Smith, A. C. Simmonett,
    A. E. DePrince III, E. G. Hohenstein, U. Bozkaya, A. Yu. Sokolov,
    R. Di Remigio, R. M. Richard, J. F. Gonthier, A. M. James,
    H. R. McAlexander, A. Kumar, M. Saitow, X. Wang, B. P. Pritchard,
    P. Verma, H. F. Schaefer III, K. Patkowski, R. A. King, E. F. Valeev,
    F. A. Evangelista, J. M. Turney, T. D. Crawford, and C. D. Sherrill,
    J. Chem. Theory Comput. 13(7) pp 3185--3197 (2017).
    (doi: 10.1021/acs.jctc.7b00174)


                         Additional Contributions by
    P. Kraus, H. Kruse, M. H. Lechner, M. C. Schieber, R. A. Shaw,
    A. Alenaizan, R. Galvelis, Z. L. Glick, S. Lehtola, and J. P. Misiewicz

    -----------------------------------------------------------------------


    Psi4 started on: Tuesday, 02 February 2021 03:34AM

    Process ID: 3440110
    Host:       node88.bme.utexas.edu
    PSIDATADIR: /home/xy3866/psi4conda/share/psi4
    Memory:     500.0 MiB
    Threads:    8
    
  ==> Input File <==

--------------------------------------------------------------------------
#psi4
#
memory 32 gb

molecule  {
0 1
  O       -0.0101440     2.0708820    -0.1140410
  N        0.2329205    -0.2371813    -0.3744037
  C       -0.4908340    -1.4342940    -0.0290780
  C       -1.9502640    -0.9583450    -0.0482810
  C       -1.8489090     0.4999680     0.4010950
  C       -0.4582930     0.9265630    -0.0509830
  C        1.6617300    -0.1844710    -0.6214880
  C        2.4978900    -0.3314020     0.6460640
  H       -0.2060500    -1.8213230     0.9608810
  H       -0.2853850    -2.2161620    -0.7686800
  H       -2.5951790    -1.5710950     0.5868370
  H       -2.3326610    -1.0086390    -1.0720610
  H       -1.8916900     0.5931740     1.4933710
  H       -2.6106570     1.1621840    -0.0164710
  H        1.8952280    -0.9774960    -1.3410860
  H        1.8622980     0.7788290    -1.0968800
  H        2.2724650     0.4877290     1.3331980
  H        2.2931660    -1.2799200     1.1504100
  H        3.5653110    -0.2984830     0.4074420
units angstrom
no_reorient  #important for SAPT in psi4, default
symmetry c1  #important for SAPT in psi4, default
}

set PROPERTIES_ORIGIN ["COM"]
properties('MP2/aug-cc-pvtz', properties = ['dipole'])
--------------------------------------------------------------------------

  Memory set to  29.802 GiB by Python driver.
    SCF Algorithm Type (re)set to DF.

*** tstart() called on node88.bme.utexas.edu
*** at Tue Feb  2 03:34:48 2021

   => Loading Basis Set <=

    Name: AUG-CC-PVTZ
    Role: ORBITAL
    Keyword: BASIS
    atoms 1    entry O          line   327 file /home/xy3866/psi4conda/share/psi4/basis/aug-cc-pvtz.gbs 
    atoms 2    entry N          line   281 file /home/xy3866/psi4conda/share/psi4/basis/aug-cc-pvtz.gbs 
    atoms 3-8  entry C          line   235 file /home/xy3866/psi4conda/share/psi4/basis/aug-cc-pvtz.gbs 
    atoms 9-19 entry H          line    36 file /home/xy3866/psi4conda/share/psi4/basis/aug-cc-pvtz.gbs 


         ---------------------------------------------------------
                                   SCF
               by Justin Turney, Rob Parrish, Andy Simmonett
                          and Daniel G. A. Smith
                              RHF Reference
                        8 Threads,  30517 MiB Core
         ---------------------------------------------------------

  ==> Geometry <==

    Molecular point group: c1
    Full point group: C1

    Geometry (in Angstrom), charge = 0, multiplicity = 1:

       Center              X                  Y                   Z               Mass       
    ------------   -----------------  -----------------  -----------------  -----------------
         O            0.007387849424     2.019422882577    -0.097688912543    15.994914619570
         N            0.250452349424    -0.288640417423    -0.358051612543    14.003074004430
         C           -0.473302150576    -1.485753117423    -0.012725912543    12.000000000000
         C           -1.932732150576    -1.009804117423    -0.031928912543    12.000000000000
         C           -1.831377150576     0.448508882577     0.417447087457    12.000000000000
         C           -0.440761150576     0.875103882577    -0.034630912543    12.000000000000
         C            1.679261849424    -0.235930117423    -0.605135912543    12.000000000000
         C            2.515421849424    -0.382861117423     0.662416087457    12.000000000000
         H           -0.188518150576    -1.872782117423     0.977233087457     1.007825032230
         H           -0.267853150576    -2.267621117423    -0.752327912543     1.007825032230
         H           -2.577647150576    -1.622554117423     0.603189087457     1.007825032230
         H           -2.315129150576    -1.060098117423    -1.055708912543     1.007825032230
         H           -1.874158150576     0.541714882577     1.509723087457     1.007825032230
         H           -2.593125150576     1.110724882577    -0.000118912543     1.007825032230
         H            1.912759849424    -1.028955117423    -1.324733912543     1.007825032230
         H            1.879829849424     0.727369882577    -1.080527912543     1.007825032230
         H            2.289996849424     0.436269882577     1.349550087457     1.007825032230
         H            2.310697849424    -1.331379117423     1.166762087457     1.007825032230
         H            3.582842849424    -0.349942117423     0.423794087457     1.007825032230

  Running in c1 symmetry.

  Rotational constants: A =      0.10388  B =      0.06031  C =      0.04311 [cm^-1]
  Rotational constants: A =   3114.36088  B =   1808.19002  C =   1292.48712 [MHz]
  Nuclear repulsion =  394.074601617402607

  Charge       = 0
  Multiplicity = 1
  Electrons    = 62
  Nalpha       = 31
  Nbeta        = 31

  ==> Algorithm <==

  SCF Algorithm Type is DF.
  DIIS enabled.
  MOM disabled.
  Fractional occupation disabled.
  Guess Type is SAD.
  Energy threshold   = 1.00e-10
  Density threshold  = 1.00e-10
  Integral threshold = 0.00e+00

  ==> Primary Basis <==

  Basis Set: AUG-CC-PVTZ
    Blend: AUG-CC-PVTZ
    Number of shells: 211
    Number of basis function: 621
    Number of Cartesian functions: 715
    Spherical Harmonics?: true
    Max angular momentum: 3

   => Loading Basis Set <=

    Name: (AUG-CC-PVTZ AUX)
    Role: JKFIT
    Keyword: DF_BASIS_SCF
    atoms 1    entry O          line   286 file /home/xy3866/psi4conda/share/psi4/basis/aug-cc-pvtz-jkfit.gbs 
    atoms 2    entry N          line   224 file /home/xy3866/psi4conda/share/psi4/basis/aug-cc-pvtz-jkfit.gbs 
    atoms 3-8  entry C          line   162 file /home/xy3866/psi4conda/share/psi4/basis/aug-cc-pvtz-jkfit.gbs 
    atoms 9-19 entry H          line    70 file /home/xy3866/psi4conda/share/psi4/basis/aug-cc-pvtz-jkfit.gbs 

  ==> Pre-Iterations <==

   -------------------------------------------------------
    Irrep   Nso     Nmo     Nalpha   Nbeta   Ndocc  Nsocc
   -------------------------------------------------------
     A        621     621       0       0       0       0
   -------------------------------------------------------
    Total     621     621      31      31      31       0
   -------------------------------------------------------

  ==> Integral Setup <==

  DFHelper Memory: AOs need 3.835 GiB; user supplied 22.352 GiB. Using in-core AOs.

  ==> MemDFJK: Density-Fitted J/K Matrices <==

    J tasked:                   Yes
    K tasked:                   Yes
    wK tasked:                   No
    OpenMP threads:               8
    Memory [MiB]:             22888
    Algorithm:                 Disk
    Schwarz Cutoff:           1E-12
    Mask sparsity (%):       3.2066
    Fitting Condition:        1E-10

   => Auxiliary Basis Set <=

  Basis Set: (AUG-CC-PVTZ AUX)
    Blend: AUG-CC-PVTZ-JKFIT
    Number of shells: 394
    Number of basis function: 1338
    Number of Cartesian functions: 1653
    Spherical Harmonics?: true
    Max angular momentum: 4

  Minimum eigenvalue in the overlap matrix is 2.9421222707E-06.
  Using Symmetric Orthogonalization.

  SCF Guess: Superposition of Atomic Densities via on-the-fly atomic UHF.

  ==> Iterations <==

                           Total Energy        Delta E     RMS |[F,P]|

   @DF-RHF iter SAD:  -362.70398251756507   -3.62704e+02   0.00000e+00 
   @DF-RHF iter   1:  -362.78657623632802   -8.25937e-02   1.14892e-03 DIIS
   @DF-RHF iter   2:  -363.01657831837673   -2.30002e-01   5.92565e-04 DIIS
   @DF-RHF iter   3:  -363.07007211671367   -5.34938e-02   1.22456e-04 DIIS
   @DF-RHF iter   4:  -363.07393039410840   -3.85828e-03   5.70818e-05 DIIS
   @DF-RHF iter   5:  -363.07460036595819   -6.69972e-04   1.14938e-05 DIIS
   @DF-RHF iter   6:  -363.07465493047664   -5.45645e-05   5.44298e-06 DIIS
   @DF-RHF iter   7:  -363.07466482588637   -9.89541e-06   1.90146e-06 DIIS
   @DF-RHF iter   8:  -363.07466721626372   -2.39038e-06   8.33388e-07 DIIS
   @DF-RHF iter   9:  -363.07466764747073   -4.31207e-07   2.39094e-07 DIIS
   @DF-RHF iter  10:  -363.07466768052967   -3.30589e-08   6.98696e-08 DIIS
   @DF-RHF iter  11:  -363.07466768265465   -2.12498e-09   2.12500e-08 DIIS
   @DF-RHF iter  12:  -363.07466768283291   -1.78261e-10   6.67406e-09 DIIS
   @DF-RHF iter  13:  -363.07466768285445   -2.15437e-11   2.16259e-09 DIIS
   @DF-RHF iter  14:  -363.07466768285815   -3.69482e-12   9.11862e-10 DIIS
   @DF-RHF iter  15:  -363.07466768285866   -5.11591e-13   3.51191e-10 DIIS
   @DF-RHF iter  16:  -363.07466768285997   -1.30740e-12   1.33200e-10 DIIS
   @DF-RHF iter  17:  -363.07466768285934    6.25278e-13   4.56414e-11 DIIS
  Energy and wave function converged.


  ==> Post-Iterations <==

    Orbital Energies [Eh]
    ---------------------

    Doubly Occupied:                                                      

       1A    -20.515737     2A    -15.580010     3A    -11.344382  
       4A    -11.273100     5A    -11.260256     6A    -11.242239  
       7A    -11.240503     8A    -11.218428     9A     -1.367575  
      10A     -1.258822    11A     -1.087449    12A     -0.999807  
      13A     -0.971028    14A     -0.869739    15A     -0.827886  
      16A     -0.726664    17A     -0.693178    18A     -0.667933  
      19A     -0.639536    20A     -0.603510    21A     -0.589823  
      22A     -0.573370    23A     -0.562873    24A     -0.554849  
      25A     -0.523485    26A     -0.512177    27A     -0.509287  
      28A     -0.490631    29A     -0.477837    30A     -0.410898  
      31A     -0.368724  

    Virtual:                                                              

      32A      0.024745    33A      0.032535    34A      0.034274  
      35A      0.040340    36A      0.050266    37A      0.050520  
      38A      0.054520    39A      0.058746    40A      0.063374  
      41A      0.074241    42A      0.077592    43A      0.095866  
      44A      0.098199    45A      0.111526    46A      0.114070  
      47A      0.117557    48A      0.119867    49A      0.122558  
      50A      0.125958    51A      0.132322    52A      0.137105  
      53A      0.140427    54A      0.144750    55A      0.149096  
      56A      0.151897    57A      0.154681    58A      0.156110  
      59A      0.159949    60A      0.172081    61A      0.176389  
      62A      0.186761    63A      0.190114    64A      0.194309  
      65A      0.203920    66A      0.220151    67A      0.224440  
      68A      0.230222    69A      0.248042    70A      0.249489  
      71A      0.253831    72A      0.267880    73A      0.269246  
      74A      0.272413    75A      0.276119    76A      0.282204  
      77A      0.287422    78A      0.293268    79A      0.302506  
      80A      0.304187    81A      0.310272    82A      0.314311  
      83A      0.319260    84A      0.325912    85A      0.328425  
      86A      0.334809    87A      0.340819    88A      0.345588  
      89A      0.350060    90A      0.355385    91A      0.364481  
      92A      0.366737    93A      0.368295    94A      0.374339  
      95A      0.383467    96A      0.388669    97A      0.395418  
      98A      0.399408    99A      0.402274   100A      0.405915  
     101A      0.412410   102A      0.416067   103A      0.420437  
     104A      0.425284   105A      0.430295   106A      0.435397  
     107A      0.436280   108A      0.441578   109A      0.451822  
     110A      0.455579   111A      0.458910   112A      0.464356  
     113A      0.468922   114A      0.473035   115A      0.476364  
     116A      0.480238   117A      0.483880   118A      0.488885  
     119A      0.491187   120A      0.496243   121A      0.505283  
     122A      0.517044   123A      0.519275   124A      0.522928  
     125A      0.529878   126A      0.532677   127A      0.537835  
     128A      0.544721   129A      0.547878   130A      0.552997  
     131A      0.561583   132A      0.568442   133A      0.572443  
     134A      0.577362   135A      0.585667   136A      0.588861  
     137A      0.595489   138A      0.599770   139A      0.607282  
     140A      0.614985   141A      0.619075   142A      0.622419  
     143A      0.632278   144A      0.635975   145A      0.645957  
     146A      0.648014   147A      0.655915   148A      0.665025  
     149A      0.672520   150A      0.679352   151A      0.690150  
     152A      0.700077   153A      0.706791   154A      0.724253  
     155A      0.735829   156A      0.737305   157A      0.747794  
     158A      0.758769   159A      0.772972   160A      0.784939  
     161A      0.795451   162A      0.802127   163A      0.807336  
     164A      0.811921   165A      0.818507   166A      0.829300  
     167A      0.834752   168A      0.839593   169A      0.854760  
     170A      0.858508   171A      0.861975   172A      0.868181  
     173A      0.874837   174A      0.877670   175A      0.886804  
     176A      0.895219   177A      0.898349   178A      0.906131  
     179A      0.911554   180A      0.917183   181A      0.921182  
     182A      0.929725   183A      0.939240   184A      0.942579  
     185A      0.945649   186A      0.949849   187A      0.960273  
     188A      0.963916   189A      0.972786   190A      0.976792  
     191A      0.985060   192A      0.989012   193A      1.002681  
     194A      1.008885   195A      1.015155   196A      1.022108  
     197A      1.025821   198A      1.034114   199A      1.039029  
     200A      1.050279   201A      1.054047   202A      1.056763  
     203A      1.067217   204A      1.072398   205A      1.084404  
     206A      1.086971   207A      1.094279   208A      1.095106  
     209A      1.110972   210A      1.114690   211A      1.122853  
     212A      1.129021   213A      1.137673   214A      1.138755  
     215A      1.144149   216A      1.151205   217A      1.162767  
     218A      1.171943   219A      1.179208   220A      1.181176  
     221A      1.188470   222A      1.200855   223A      1.207388  
     224A      1.217700   225A      1.220402   226A      1.227449  
     227A      1.232384   228A      1.238883   229A      1.244988  
     230A      1.254139   231A      1.259975   232A      1.267032  
     233A      1.274265   234A      1.297589   235A      1.300434  
     236A      1.308430   237A      1.316769   238A      1.321962  
     239A      1.335948   240A      1.344296   241A      1.348622  
     242A      1.353989   243A      1.366406   244A      1.374256  
     245A      1.383526   246A      1.388784   247A      1.396268  
     248A      1.411313   249A      1.416778   250A      1.426964  
     251A      1.438900   252A      1.446566   253A      1.449633  
     254A      1.464882   255A      1.476820   256A      1.480884  
     257A      1.491116   258A      1.493951   259A      1.498186  
     260A      1.517010   261A      1.527476   262A      1.537935  
     263A      1.550314   264A      1.551238   265A      1.558768  
     266A      1.561220   267A      1.581662   268A      1.595229  
     269A      1.604144   270A      1.609340   271A      1.624163  
     272A      1.629553   273A      1.641406   274A      1.644074  
     275A      1.648232   276A      1.655212   277A      1.659664  
     278A      1.674231   279A      1.681011   280A      1.686186  
     281A      1.699060   282A      1.706434   283A      1.712974  
     284A      1.715901   285A      1.722451   286A      1.729921  
     287A      1.733935   288A      1.741003   289A      1.755219  
     290A      1.762241   291A      1.765059   292A      1.783390  
     293A      1.790120   294A      1.794603   295A      1.802709  
     296A      1.810518   297A      1.822320   298A      1.835869  
     299A      1.843122   300A      1.847343   301A      1.857295  
     302A      1.863076   303A      1.869529   304A      1.871526  
     305A      1.882752   306A      1.904398   307A      1.916589  
     308A      1.918894   309A      1.923646   310A      1.944657  
     311A      1.954283   312A      1.971207   313A      1.982145  
     314A      1.985446   315A      1.990955   316A      1.999389  
     317A      2.007100   318A      2.013410   319A      2.016388  
     320A      2.027688   321A      2.035146   322A      2.043202  
     323A      2.067125   324A      2.073364   325A      2.093968  
     326A      2.097664   327A      2.101770   328A      2.130525  
     329A      2.138251   330A      2.147675   331A      2.156773  
     332A      2.173684   333A      2.193461   334A      2.221468  
     335A      2.222548   336A      2.229268   337A      2.237408  
     338A      2.248395   339A      2.252759   340A      2.267283  
     341A      2.274817   342A      2.280540   343A      2.288140  
     344A      2.298432   345A      2.308204   346A      2.325230  
     347A      2.338431   348A      2.351854   349A      2.364864  
     350A      2.374263   351A      2.387323   352A      2.410122  
     353A      2.412778   354A      2.430174   355A      2.445289  
     356A      2.447557   357A      2.486211   358A      2.496183  
     359A      2.499219   360A      2.515502   361A      2.525059  
     362A      2.563168   363A      2.578310   364A      2.597210  
     365A      2.623709   366A      2.632463   367A      2.644228  
     368A      2.655507   369A      2.684820   370A      2.718696  
     371A      2.726171   372A      2.749960   373A      2.755202  
     374A      2.766008   375A      2.808699   376A      2.822974  
     377A      2.845903   378A      2.851065   379A      2.879184  
     380A      2.889900   381A      2.910162   382A      2.929666  
     383A      2.989844   384A      3.024806   385A      3.062085  
     386A      3.088407   387A      3.115655   388A      3.133520  
     389A      3.144429   390A      3.158100   391A      3.223985  
     392A      3.282665   393A      3.294573   394A      3.328021  
     395A      3.353279   396A      3.382190   397A      3.427161  
     398A      3.444766   399A      3.452738   400A      3.468524  
     401A      3.482431   402A      3.497106   403A      3.508613  
     404A      3.526650   405A      3.555957   406A      3.562802  
     407A      3.574536   408A      3.601828   409A      3.607700  
     410A      3.628660   411A      3.633518   412A      3.649478  
     413A      3.664155   414A      3.686926   415A      3.687597  
     416A      3.698484   417A      3.717721   418A      3.730951  
     419A      3.737169   420A      3.751698   421A      3.770170  
     422A      3.777058   423A      3.786143   424A      3.791340  
     425A      3.805624   426A      3.812157   427A      3.824067  
     428A      3.834769   429A      3.846068   430A      3.860375  
     431A      3.864047   432A      3.877088   433A      3.886265  
     434A      3.894296   435A      3.914880   436A      3.921539  
     437A      3.938680   438A      3.954750   439A      3.962082  
     440A      3.967580   441A      3.983356   442A      3.989490  
     443A      3.993065   444A      4.000464   445A      4.011678  
     446A      4.018751   447A      4.032854   448A      4.045165  
     449A      4.058794   450A      4.068696   451A      4.073446  
     452A      4.089278   453A      4.097531   454A      4.112722  
     455A      4.120514   456A      4.153804   457A      4.163833  
     458A      4.178421   459A      4.192323   460A      4.199462  
     461A      4.216904   462A      4.240121   463A      4.247929  
     464A      4.257930   465A      4.266898   466A      4.280138  
     467A      4.296024   468A      4.313024   469A      4.320959  
     470A      4.328916   471A      4.346098   472A      4.350973  
     473A      4.362070   474A      4.379983   475A      4.396134  
     476A      4.422771   477A      4.434231   478A      4.440625  
     479A      4.462521   480A      4.477197   481A      4.495148  
     482A      4.500992   483A      4.513730   484A      4.528486  
     485A      4.550461   486A      4.563493   487A      4.579552  
     488A      4.588223   489A      4.611733   490A      4.637128  
     491A      4.659718   492A      4.664162   493A      4.673153  
     494A      4.684948   495A      4.709714   496A      4.719340  
     497A      4.722810   498A      4.750696   499A      4.773449  
     500A      4.775820   501A      4.814687   502A      4.846776  
     503A      4.851332   504A      4.864266   505A      4.873532  
     506A      4.878489   507A      4.893426   508A      4.902417  
     509A      4.923376   510A      4.940942   511A      4.951284  
     512A      4.966867   513A      4.986748   514A      4.990480  
     515A      5.020712   516A      5.026859   517A      5.045373  
     518A      5.051961   519A      5.073145   520A      5.079676  
     521A      5.097440   522A      5.126908   523A      5.137630  
     524A      5.157692   525A      5.172786   526A      5.179990  
     527A      5.192842   528A      5.203997   529A      5.244848  
     530A      5.259004   531A      5.266160   532A      5.304899  
     533A      5.309343   534A      5.324703   535A      5.340927  
     536A      5.355494   537A      5.373359   538A      5.385556  
     539A      5.404231   540A      5.409079   541A      5.428416  
     542A      5.440698   543A      5.462576   544A      5.465148  
     545A      5.489460   546A      5.511200   547A      5.531488  
     548A      5.548581   549A      5.574089   550A      5.587027  
     551A      5.608544   552A      5.616400   553A      5.651540  
     554A      5.668926   555A      5.683076   556A      5.696356  
     557A      5.713963   558A      5.748951   559A      5.756112  
     560A      5.768603   561A      5.773794   562A      5.817344  
     563A      5.829360   564A      5.853282   565A      5.902372  
     566A      5.935196   567A      5.943884   568A      5.999957  
     569A      6.019579   570A      6.035091   571A      6.045153  
     572A      6.071162   573A      6.092513   574A      6.117733  
     575A      6.145856   576A      6.183742   577A      6.198612  
     578A      6.220563   579A      6.234804   580A      6.248804  
     581A      6.277887   582A      6.306753   583A      6.334544  
     584A      6.385150   585A      6.464728   586A      6.512456  
     587A      6.524765   588A      6.555485   589A      6.592802  
     590A      6.632766   591A      6.719576   592A      6.784133  
     593A      6.801924   594A      6.812564   595A      6.833652  
     596A      6.865628   597A      6.888902   598A      6.920261  
     599A      6.934695   600A      6.979161   601A      7.002415  
     602A      7.064453   603A      7.070716   604A      7.104576  
     605A      7.267283   606A      7.311843   607A      7.477947  
     608A      7.508515   609A      7.701599   610A      7.777107  
     611A      7.817178   612A      7.975023   613A      8.071526  
     614A     15.981952   615A     16.760759   616A     17.815832  
     617A     17.983293   618A     18.976866   619A     19.255750  
     620A     20.045754   621A     20.860253  

    Final Occupation by Irrep:
              A 
    DOCC [    31 ]

  @DF-RHF Final Energy:  -363.07466768285934

   => Energetics <=

    Nuclear Repulsion Energy =            394.0746016174026067
    One-Electron Energy =               -1274.3750641193682895
    Two-Electron Energy =                 517.2257948191064543
    Total Energy =                       -363.0746676828592854

Computation Completed

*** tstop() called on node88.bme.utexas.edu at Tue Feb  2 03:35:42 2021
Module time:
	user time   =     244.07 seconds =       4.07 minutes
	system time =      30.41 seconds =       0.51 minutes
	total time  =         54 seconds =       0.90 minutes
Total time:
	user time   =     244.07 seconds =       4.07 minutes
	system time =      30.41 seconds =       0.51 minutes
	total time  =         54 seconds =       0.90 minutes
   => Loading Basis Set <=

    Name: (AUG-CC-PVTZ AUX)
    Role: RIFIT
    Keyword: DF_BASIS_MP2
    atoms 1    entry O          line   264 file /home/xy3866/psi4conda/share/psi4/basis/aug-cc-pvtz-ri.gbs 
    atoms 2    entry N          line   206 file /home/xy3866/psi4conda/share/psi4/basis/aug-cc-pvtz-ri.gbs 
    atoms 3-8  entry C          line   148 file /home/xy3866/psi4conda/share/psi4/basis/aug-cc-pvtz-ri.gbs 
    atoms 9-19 entry H          line    30 file /home/xy3866/psi4conda/share/psi4/basis/aug-cc-pvtz-ri.gbs 


*** tstart() called on node88.bme.utexas.edu
*** at Tue Feb  2 03:35:42 2021


  //>>>>>>>>>>>>>>>>>>>>>>>>>>>>>>>>>>>//
  //               DFMP2               //
  //<<<<<<<<<<<<<<<<<<<<<<<<<<<<<<<<<<<//

	 --------------------------------------------------------
	                          DF-MP2                         
	      2nd-Order Density-Fitted Moller-Plesset Theory     
	              RMP2 Wavefunction,   8 Threads             
	                                                         
	        Rob Parrish, Justin Turney, Andy Simmonett,      
	           Ed Hohenstein, and C. David Sherrill          
	 --------------------------------------------------------

   => Auxiliary Basis Set <=

  Basis Set: (AUG-CC-PVTZ AUX)
    Blend: AUG-CC-PVTZ-RI
    Number of shells: 378
    Number of basis function: 1354
    Number of Cartesian functions: 1693
    Spherical Harmonics?: true
    Max angular momentum: 4

	 --------------------------------------------------------
	                 NBF =   621, NAUX =  1354
	 --------------------------------------------------------
	   CLASS    FOCC     OCC    AOCC    AVIR     VIR    FVIR
	   PAIRS       0      31      31     590     590       0
	 --------------------------------------------------------

  DFHelper Memory: AOs need 3.835 GiB; user supplied 22.352 GiB. Using in-core AOs.


         ------------------------------------------------------------
                                     CPHF                           
                                  Rob Parrish                       
         ------------------------------------------------------------

  ==> Geometry <==

    Molecular point group: c1
    Full point group: C1

    Geometry (in Angstrom), charge = 0, multiplicity = 1:

       Center              X                  Y                   Z               Mass       
    ------------   -----------------  -----------------  -----------------  -----------------
         O            0.007387849424     2.019422882577    -0.097688912543    15.994914619570
         N            0.250452349424    -0.288640417423    -0.358051612543    14.003074004430
         C           -0.473302150576    -1.485753117423    -0.012725912543    12.000000000000
         C           -1.932732150576    -1.009804117423    -0.031928912543    12.000000000000
         C           -1.831377150576     0.448508882577     0.417447087457    12.000000000000
         C           -0.440761150576     0.875103882577    -0.034630912543    12.000000000000
         C            1.679261849424    -0.235930117423    -0.605135912543    12.000000000000
         C            2.515421849424    -0.382861117423     0.662416087457    12.000000000000
         H           -0.188518150576    -1.872782117423     0.977233087457     1.007825032230
         H           -0.267853150576    -2.267621117423    -0.752327912543     1.007825032230
         H           -2.577647150576    -1.622554117423     0.603189087457     1.007825032230
         H           -2.315129150576    -1.060098117423    -1.055708912543     1.007825032230
         H           -1.874158150576     0.541714882577     1.509723087457     1.007825032230
         H           -2.593125150576     1.110724882577    -0.000118912543     1.007825032230
         H            1.912759849424    -1.028955117423    -1.324733912543     1.007825032230
         H            1.879829849424     0.727369882577    -1.080527912543     1.007825032230
         H            2.289996849424     0.436269882577     1.349550087457     1.007825032230
         H            2.310697849424    -1.331379117423     1.166762087457     1.007825032230
         H            3.582842849424    -0.349942117423     0.423794087457     1.007825032230

  Nuclear repulsion =  394.074601617402607
  Reference energy  = -363.074667682859342

  ==> Basis Set <==

  Basis Set: AUG-CC-PVTZ
    Blend: AUG-CC-PVTZ
    Number of shells: 211
    Number of basis function: 621
    Number of Cartesian functions: 715
    Spherical Harmonics?: true
    Max angular momentum: 3

  ==> CGRSolver (by Rob Parrish) <==

   Number of roots    =         1
   Preconditioning    =    JACOBI
   Convergence cutoff =     1E-06
   Maximum iterations =       100

  ==> CPHFRHamiltonian (by Rob Parrish) <== 

  ==> MemDFJK: Density-Fitted J/K Matrices <==

    J tasked:                   Yes
    K tasked:                   Yes
    wK tasked:                   No
    OpenMP threads:               8
    Memory [MiB]:             22888
    Algorithm:                 Disk
    Schwarz Cutoff:           1E-12
    Mask sparsity (%):       3.2066
    Fitting Condition:        1E-10

   => Auxiliary Basis Set <=

  Basis Set: (AUG-CC-PVTZ AUX)
    Blend: AUG-CC-PVTZ-JKFIT
    Number of shells: 394
    Number of basis function: 1338
    Number of Cartesian functions: 1653
    Spherical Harmonics?: true
    Max angular momentum: 4

  ==> CPHF Iterations <==

  => Iterations <=

             Iter  Converged  Remaining    Residual
  CGR           1          0          1   1.229E-01
  CGR           2          0          1   3.623E-02
  CGR           3          0          1   1.513E-02
  CGR           4          0          1   4.188E-03
  CGR           5          0          1   1.636E-03
  CGR           6          0          1   5.746E-04
  CGR           7          0          1   1.979E-04
  CGR           8          0          1   8.447E-05
  CGR           9          0          1   2.812E-05
  CGR          10          0          1   9.220E-06
  CGR          11          0          1   3.239E-06
  CGR          12          0          1   1.344E-06
  CGR          13          1          0   4.470E-07

    CGRSolver converged.

	-----------------------------------------------------------
	 ==================> DF-MP2 Energies <==================== 
	-----------------------------------------------------------
	 Reference Energy          =    -363.0746676828593422 [Eh]
	 Singles Energy            =      -0.0000000000000000 [Eh]
	 Same-Spin Energy          =      -0.3769818521458822 [Eh]
	 Opposite-Spin Energy      =      -1.2472883347855823 [Eh]
	 Correlation Energy        =      -1.6242701869314646 [Eh]
	 Total Energy              =    -364.6989378697908251 [Eh]
	-----------------------------------------------------------
	 ================> DF-SCS-MP2 Energies <================== 
	-----------------------------------------------------------
	 SCS Same-Spin Scale       =       0.3333333333333333 [-]
	 SCS Opposite-Spin Scale   =       1.2000000000000000 [-]
	 SCS Same-Spin Energy      =      -0.1256606173819607 [Eh]
	 SCS Opposite-Spin Energy  =      -1.4967460017426988 [Eh]
	 SCS Correlation Energy    =      -1.6224066191246596 [Eh]
	 SCS Total Energy          =    -364.6970743019840029 [Eh]
	-----------------------------------------------------------



Properties will be evaluated at  -0.000000,  -0.000000,  -0.000000 [a0]

Properties computed using the MP2 density matrix

  Nuclear Dipole Moment: [e a0]
     X:     2.0240      Y:    -6.2867      Z:     1.7038

  Electronic Dipole Moment: [e a0]
     X:    -2.2141      Y:     4.7837      Z:    -1.5916

  Dipole Moment: [e a0]
     X:    -0.1902      Y:    -1.5030      Z:     0.1122     Total:     1.5192

  Dipole Moment: [D]
     X:    -0.4834      Y:    -3.8203      Z:     0.2853     Total:     3.8613


*** tstop() called on node88.bme.utexas.edu at Tue Feb  2 03:37:47 2021
Module time:
	user time   =     712.25 seconds =      11.87 minutes
	system time =      54.00 seconds =       0.90 minutes
	total time  =        125 seconds =       2.08 minutes
Total time:
	user time   =     956.48 seconds =      15.94 minutes
	system time =      84.41 seconds =       1.41 minutes
	total time  =        179 seconds =       2.98 minutes

    Psi4 stopped on: Tuesday, 02 February 2021 03:37AM
    Psi4 wall time for execution: 0:02:59.40

*** Psi4 exiting successfully. Buy a developer a beer!
