076_CHCl3 Gaussian SP Calculation on g2-node38.bme.utexas.edu           
Freq      RMP2-FC                                                     6-31G(d)            
Number of atoms                            I                5
Info1-9                                    I   N=           9
          16          15        1002           0           0         100
           6           2           1
Charge                                     I                0
Multiplicity                               I                1
Number of electrons                        I               58
Number of alpha electrons                  I               29
Number of beta electrons                   I               29
Number of basis functions                  I               74
Number of independent functions            I               74
Number of point charges in /Mol/           I                0
Number of translation vectors              I                0
Atomic numbers                             I   N=           5
          17          17          17           6           1
Nuclear charges                            R   N=           5
  1.70000000E+01  1.70000000E+01  1.70000000E+01  6.00000000E+00  1.00000000E+00
Current cartesian coordinates              R   N=          15
 -3.08287407E+00 -7.82924729E-01 -1.57540265E-01  2.21946847E+00 -2.27837986E+00
 -1.57541464E-01  8.63401582E-01  3.06130307E+00 -1.57541711E-01  1.16330886E-05
  4.10393815E-06  8.54581172E-01 -1.37566056E-06  1.27240186E-06  2.90711145E+00
Force Field                                I                0
Int Atom Types                             I   N=           5
           0           0           0           0           0
MM charges                                 R   N=           5
  0.00000000E+00  0.00000000E+00  0.00000000E+00  0.00000000E+00  0.00000000E+00
Integer atomic weights                     I   N=           5
          35          35          35          12           1
Real atomic weights                        R   N=           5
  3.49688527E+01  3.49688527E+01  3.49688527E+01  1.20000000E+01  1.00782504E+00
Atom fragment info                         I   N=           5
           0           0           0           0           0
Atom residue num                           I   N=           5
           0           0           0           0           0
Nuclear spins                              I   N=           5
           3           3           3           0           1
Nuclear ZEff                               R   N=           5
 -1.42400000E+01 -1.42400000E+01 -1.42400000E+01 -3.60000000E+00 -1.00000000E+00
Nuclear QMom                               R   N=           5
 -8.16500000E+00 -8.16500000E+00 -8.16500000E+00  0.00000000E+00  0.00000000E+00
Nuclear GFac                               R   N=           5
  8.21874000E-01  8.21874000E-01  8.21874000E-01  0.00000000E+00  2.79284600E+00
MicOpt                                     I   N=           5
          -1          -1          -1          -1          -1
Number of contracted shells                I               21
Number of primitive shells                 I               66
Pure/Cartesian d shells                    I                1
Pure/Cartesian f shells                    I                0
Highest angular momentum                   I                2
Largest degree of contraction              I                6
Shell types                                I   N=          21
           0          -1          -1          -1           2           0
          -1          -1          -1           2           0          -1
          -1          -1           2           0          -1          -1
           2           0           0
Number of primitives per shell             I   N=          21
           6           6           3           1           1           6
           6           3           1           1           6           6
           3           1           1           6           3           1
           1           3           1
Shell to atom map                          I   N=          21
           1           1           1           1           1           2
           2           2           2           2           3           3
           3           3           3           4           4           4
           4           5           5
Primitive exponents                        R   N=          66
  2.51801000E+04  3.78035000E+03  8.60474000E+02  2.42145000E+02  7.73349000E+01
  2.62470000E+01  4.91765000E+02  1.16984000E+02  3.74153000E+01  1.37834000E+01
  5.45215000E+00  2.22588000E+00  3.18649000E+00  1.14427000E+00  4.20377000E-01
  1.42657000E-01  7.50000000E-01  2.51801000E+04  3.78035000E+03  8.60474000E+02
  2.42145000E+02  7.73349000E+01  2.62470000E+01  4.91765000E+02  1.16984000E+02
  3.74153000E+01  1.37834000E+01  5.45215000E+00  2.22588000E+00  3.18649000E+00
  1.14427000E+00  4.20377000E-01  1.42657000E-01  7.50000000E-01  2.51801000E+04
  3.78035000E+03  8.60474000E+02  2.42145000E+02  7.73349000E+01  2.62470000E+01
  4.91765000E+02  1.16984000E+02  3.74153000E+01  1.37834000E+01  5.45215000E+00
  2.22588000E+00  3.18649000E+00  1.14427000E+00  4.20377000E-01  1.42657000E-01
  7.50000000E-01  3.04752488E+03  4.57369518E+02  1.03948685E+02  2.92101553E+01
  9.28666296E+00  3.16392696E+00  7.86827235E+00  1.88128854E+00  5.44249258E-01
  1.68714478E-01  8.00000000E-01  1.87311370E+01  2.82539436E+00  6.40121692E-01
  1.61277759E-01
Contraction coefficients                   R   N=          66
  1.83295985E-03  1.40341988E-02  6.90973943E-02  2.37451980E-01  4.83033960E-01
  3.39855972E-01 -2.29739142E-03 -3.07137189E-02 -1.12528069E-01  4.50163278E-02
  5.89353363E-01  4.65206287E-01 -2.51828028E-01  6.15892514E-02  1.06018433E+00
  1.00000000E+00  1.00000000E+00  1.83295985E-03  1.40341988E-02  6.90973943E-02
  2.37451980E-01  4.83033960E-01  3.39855972E-01 -2.29739142E-03 -3.07137189E-02
 -1.12528069E-01  4.50163278E-02  5.89353363E-01  4.65206287E-01 -2.51828028E-01
  6.15892514E-02  1.06018433E+00  1.00000000E+00  1.00000000E+00  1.83295985E-03
  1.40341988E-02  6.90973943E-02  2.37451980E-01  4.83033960E-01  3.39855972E-01
 -2.29739142E-03 -3.07137189E-02 -1.12528069E-01  4.50163278E-02  5.89353363E-01
  4.65206287E-01 -2.51828028E-01  6.15892514E-02  1.06018433E+00  1.00000000E+00
  1.00000000E+00  1.83473713E-03  1.40373228E-02  6.88426223E-02  2.32184443E-01
  4.67941348E-01  3.62311985E-01 -1.19332420E-01 -1.60854152E-01  1.14345644E+00
  1.00000000E+00  1.00000000E+00  3.34946043E-02  2.34726953E-01  8.13757326E-01
  1.00000000E+00
P(S=P) Contraction coefficients            R   N=          66
  0.00000000E+00  0.00000000E+00  0.00000000E+00  0.00000000E+00  0.00000000E+00
  0.00000000E+00  3.98940088E-03  3.03177067E-02  1.29880029E-01  3.27951072E-01
  4.53527100E-01  2.52154056E-01 -1.42993147E-02  3.23572333E-01  7.43507765E-01
  1.00000000E+00  0.00000000E+00  0.00000000E+00  0.00000000E+00  0.00000000E+00
  0.00000000E+00  0.00000000E+00  0.00000000E+00  3.98940088E-03  3.03177067E-02
  1.29880029E-01  3.27951072E-01  4.53527100E-01  2.52154056E-01 -1.42993147E-02
  3.23572333E-01  7.43507765E-01  1.00000000E+00  0.00000000E+00  0.00000000E+00
  0.00000000E+00  0.00000000E+00  0.00000000E+00  0.00000000E+00  0.00000000E+00
  3.98940088E-03  3.03177067E-02  1.29880029E-01  3.27951072E-01  4.53527100E-01
  2.52154056E-01 -1.42993147E-02  3.23572333E-01  7.43507765E-01  1.00000000E+00
  0.00000000E+00  0.00000000E+00  0.00000000E+00  0.00000000E+00  0.00000000E+00
  0.00000000E+00  0.00000000E+00  6.89990666E-02  3.16423961E-01  7.44308291E-01
  1.00000000E+00  0.00000000E+00  0.00000000E+00  0.00000000E+00  0.00000000E+00
  0.00000000E+00
Coordinates of each shell                  R   N=          63
 -3.08287407E+00 -7.82924729E-01 -1.57540265E-01 -3.08287407E+00 -7.82924729E-01
 -1.57540265E-01 -3.08287407E+00 -7.82924729E-01 -1.57540265E-01 -3.08287407E+00
 -7.82924729E-01 -1.57540265E-01 -3.08287407E+00 -7.82924729E-01 -1.57540265E-01
  2.21946847E+00 -2.27837986E+00 -1.57541464E-01  2.21946847E+00 -2.27837986E+00
 -1.57541464E-01  2.21946847E+00 -2.27837986E+00 -1.57541464E-01  2.21946847E+00
 -2.27837986E+00 -1.57541464E-01  2.21946847E+00 -2.27837986E+00 -1.57541464E-01
  8.63401582E-01  3.06130307E+00 -1.57541711E-01  8.63401582E-01  3.06130307E+00
 -1.57541711E-01  8.63401582E-01  3.06130307E+00 -1.57541711E-01  8.63401582E-01
  3.06130307E+00 -1.57541711E-01  8.63401582E-01  3.06130307E+00 -1.57541711E-01
  1.16330886E-05  4.10393815E-06  8.54581172E-01  1.16330886E-05  4.10393815E-06
  8.54581172E-01  1.16330886E-05  4.10393815E-06  8.54581172E-01  1.16330886E-05
  4.10393815E-06  8.54581172E-01 -1.37566056E-06  1.27240186E-06  2.90711145E+00
 -1.37566056E-06  1.27240186E-06  2.90711145E+00
Constraint Structure                       R   N=          15
 -3.08287407E+00 -7.82924729E-01 -1.57540265E-01  2.21946847E+00 -2.27837986E+00
 -1.57541464E-01  8.63401582E-01  3.06130307E+00 -1.57541711E-01  1.16330886E-05
  4.10393815E-06  8.54581172E-01 -1.37566056E-06  1.27240186E-06  2.90711145E+00
Num ILSW                                   I              100
ILSW                                       I   N=         100
           0           1           0           0           2           0
           0           0           0           0           0          -1
           0           0           0           0           0           0
           0           0           0           0           1           0
           1           0           0           0           0           0
           0           0      100000           0          -1           0
           0           0           0           0           0           0
           0           0           0           1           1           0
           0           0           1           0           0           0
           0           0           4          40           0           0
           0           0           0           0           0           0
           0           0           0           0           0           0
           0           0           0           0           0           0
           0           0           0           0           0           0
           0           0           0           0           0           0
           0           0           0           0           0           0
           0           0           0           0
Num RLSW                                   I               40
RLSW                                       R   N=          40
  1.00000000E+00  1.00000000E+00  1.00000000E+00  1.00000000E+00  1.00000000E+00
  0.00000000E+00  0.00000000E+00  1.00000000E+00  0.00000000E+00  0.00000000E+00
  0.00000000E+00  0.00000000E+00  1.00000000E+00  0.00000000E+00  0.00000000E+00
  0.00000000E+00  0.00000000E+00  1.00000000E+00  0.00000000E+00  0.00000000E+00
  0.00000000E+00  0.00000000E+00  1.00000000E+00  0.00000000E+00  0.00000000E+00
  0.00000000E+00  0.00000000E+00  1.00000000E+00  0.00000000E+00  0.00000000E+00
  0.00000000E+00  0.00000000E+00  0.00000000E+00  0.00000000E+00  0.00000000E+00
  0.00000000E+00  0.00000000E+00  0.00000000E+00  1.00000000E+00  1.00000000E+00
MxBond                                     I                4
NBond                                      I   N=           5
           1           1           1           4           1
IBond                                      I   N=          20
           4           0           0           0           4           0
           0           0           4           0           0           0
           1           2           3           5           4           0
           0           0
RBond                                      R   N=          20
  1.00000000E+00  0.00000000E+00  0.00000000E+00  0.00000000E+00  1.00000000E+00
  0.00000000E+00  0.00000000E+00  0.00000000E+00  1.00000000E+00  0.00000000E+00
  0.00000000E+00  0.00000000E+00  1.00000000E+00  1.00000000E+00  1.00000000E+00
  1.00000000E+00  1.00000000E+00  0.00000000E+00  0.00000000E+00  0.00000000E+00
Virial Ratio                               R      2.000406178390791E+00
SCF Energy                                 R     -1.416869525535829E+03
MP2 Energy                                 R     -1.417394358221541E+03
Total Energy                               R     -1.417394358221541E+03
Post-SCF wavefunction norm                 R      1.543695342432268E+00
RMS Force                                  R      1.362294426541801E-06
RMS Density                                R      3.329362736749307E-10
External E-field                           R   N=          35
  0.00000000E+00  0.00000000E+00  0.00000000E+00  0.00000000E+00  0.00000000E+00
  0.00000000E+00  0.00000000E+00  0.00000000E+00  0.00000000E+00  0.00000000E+00
  0.00000000E+00  0.00000000E+00  0.00000000E+00  0.00000000E+00  0.00000000E+00
  0.00000000E+00  0.00000000E+00  0.00000000E+00  0.00000000E+00  0.00000000E+00
  0.00000000E+00  0.00000000E+00  0.00000000E+00  0.00000000E+00  0.00000000E+00
  0.00000000E+00  0.00000000E+00  0.00000000E+00  0.00000000E+00  0.00000000E+00
  0.00000000E+00  0.00000000E+00  0.00000000E+00  0.00000000E+00  0.00000000E+00
IOpCl                                      I                0
IROHF                                      I                0
Alpha Orbital Energies                     R   N=          74
 -1.04855554E+02 -1.04855553E+02 -1.04855551E+02 -1.14351136E+01 -1.05899200E+01
 -1.05899189E+01 -1.05898984E+01 -8.05933334E+00 -8.05931872E+00 -8.05931756E+00
 -8.05550291E+00 -8.05550244E+00 -8.05550097E+00 -8.05545127E+00 -8.05545047E+00
 -8.05544820E+00 -1.25009386E+00 -1.11927937E+00 -1.11927707E+00 -8.78881914E-01
 -6.87326171E-01 -6.30843400E-01 -6.30842293E-01 -5.05093464E-01 -5.05092814E-01
 -4.70897503E-01 -4.70896492E-01 -4.67227275E-01 -4.53845626E-01  1.19234891E-01
  1.81761754E-01  1.81765043E-01  2.23464512E-01  4.59264195E-01  5.37096841E-01
  5.37096903E-01  5.85177906E-01  5.85178986E-01  5.95382890E-01  6.19576579E-01
  6.36492632E-01  6.36493128E-01  6.81453904E-01  6.81455779E-01  6.95064676E-01
  7.14492630E-01  8.29883897E-01  8.29884473E-01  1.01485299E+00  1.01485446E+00
  1.04761850E+00  1.11755348E+00  1.12449801E+00  1.12449902E+00  1.13414704E+00
  1.13414844E+00  1.13830610E+00  1.16368453E+00  1.28545782E+00  1.31740563E+00
  1.31740950E+00  1.34350835E+00  1.34350923E+00  1.48010473E+00  1.59986069E+00
  2.01686512E+00  2.01686533E+00  2.41850770E+00  2.41851521E+00  2.46394669E+00
  4.37164528E+00  4.69471484E+00  4.69471513E+00  4.73617207E+00
Alpha MO coefficients                      R   N=        5476
 -3.17916789E-02 -4.67015827E-04 -1.27090405E-06 -9.15724754E-07 -4.22379463E-07
  5.70112022E-04 -1.24852435E-06  5.79138995E-06 -3.60439292E-07 -6.08466986E-05
  1.75519848E-06 -4.73802422E-05 -5.61186462E-07 -1.95357216E-04 -2.06643285E-04
 -1.99275085E-04 -1.46932207E-05 -4.93821578E-07  8.26736986E-07 -6.52919289E-01
 -9.59594500E-03  2.40212682E-05 -2.51184623E-05 -1.04688164E-05  1.16554256E-02
 -1.60461961E-05  2.12046672E-05  2.50911504E-06 -1.07827981E-03  5.58799330E-05
 -9.44166057E-05 -1.11078189E-05 -4.10485049E-03 -4.12078960E-03 -4.09884622E-03
  1.00293429E-05  2.60985021E-06 -1.94150712E-06  7.51620015E-01  1.10470592E-02
 -1.07595658E-05 -3.90863223E-05  1.22489229E-05 -1.34114989E-02  6.38151642E-06
  3.22719503E-05 -3.97970008E-06  1.22241496E-03 -1.06605487E-05 -1.13317274E-04
  1.27410576E-05  4.72225039E-03  4.74349754E-03  4.71915018E-03 -7.92537838E-07
 -1.32352224E-06 -3.18941064E-06 -7.35696133E-07  1.63312904E-06 -1.30134836E-05
  7.06747788E-05 -8.19917027E-07  1.35233945E-05  1.59632965E-05 -8.66957177E-05
 -6.98416491E-07  9.33051455E-06 -1.38192091E-05 -1.79014990E-06 -2.11291375E-05
 -2.17346245E-06  1.18042242E-05 -1.16341842E-06 -5.27273203E-06 -5.62145229E-01
 -8.25992849E-03 -2.70860851E-05 -6.83366869E-06 -8.27450076E-06  1.00569037E-02
  1.33652589E-05  2.92962815E-06 -1.92086817E-06 -9.98926146E-04 -1.28936905E-04
 -2.91072180E-05 -9.73480785E-06 -3.55956421E-03 -3.53500434E-03 -3.52641791E-03
 -6.31201339E-06 -3.63589884E-06 -9.95795519E-07  6.32436099E-01  9.29724969E-03
 -2.55111813E-05  2.55506792E-05  1.10471320E-05 -1.12628821E-02  2.88636031E-05
 -2.30588727E-05 -7.43990899E-06  9.57845032E-04 -6.32344253E-05  1.34651890E-05
  1.05482959E-05  3.98680875E-03  3.96540612E-03  3.97341692E-03 -2.12637456E-06
 -7.98921022E-07  1.84435166E-06  5.25609007E-01  7.72717473E-03 -8.71602486E-06
 -2.91035444E-05  9.31927046E-06 -9.35633099E-03  1.35751459E-05  2.95824748E-05
 -6.94635410E-06  7.82858163E-04 -4.80277108E-05 -2.50480820E-05  8.73445951E-06
  3.30929415E-03  3.29734144E-03  3.30273385E-03  1.17531192E-05  3.82546125E-07
 -1.53505879E-06 -6.55236596E-06  1.45408758E-05  6.65436179E-05  1.12725782E-05
 -7.30232941E-06  1.20437075E-04 -8.16259072E-05 -1.38275937E-05 -6.22200083E-06
 -2.95804312E-06 -3.70117684E-05 -1.59422056E-05  1.28332307E-05  1.11124062E-05
  1.88254666E-06 -1.03605736E-05 -4.69571282E-05  8.21724125E-01  1.20829097E-02
  4.84824683E-05  1.23204985E-05  1.55109617E-05 -1.45995260E-02 -5.98792186E-05
 -1.52884326E-05 -1.60621866E-05  1.13395962E-03  6.29869468E-06  2.23776164E-06
  1.34359180E-05  5.15012350E-03  5.16256084E-03  5.16669214E-03 -3.65540806E-06
  8.43264226E-07  2.01438072E-07  4.07393532E-01  5.99334877E-03 -1.92800849E-05
  2.00459218E-05  8.80952648E-06 -7.20493751E-03  2.96335282E-05 -3.30363051E-05
 -1.41477568E-05  4.55270974E-04  5.05858323E-05 -3.14455113E-05  6.40111650E-06
  2.54295897E-03  2.55087544E-03  2.56543724E-03  1.41703612E-05  5.57782255E-07
 -9.80398066E-07  3.88652841E-01  5.71791032E-03 -7.11365921E-06 -2.58472730E-05
  8.50641964E-06 -6.87047109E-03  1.01412712E-05  4.23912807E-05 -1.40611919E-05
  4.24572740E-04  2.96483673E-05  5.47467706E-05  6.08286072E-06  2.43732238E-03
  2.42045684E-03  2.44777914E-03 -1.15105093E-05  5.83072618E-08  1.20964259E-06
 -1.77894189E-05  3.94644711E-05 -2.39727409E-05 -7.07522675E-06 -1.98252757E-05
  3.26964216E-04  2.94041388E-05  8.67852844E-06 -1.68915807E-05 -6.09963618E-05
 -4.74987427E-05 -4.32776649E-05 -3.85249372E-06 -4.00232532E-06 -1.18119420E-06
 -2.81262415E-05 -1.27480172E-04 -3.11778276E-05  7.57381939E-05 -4.10667400E-05
 -1.04293212E-05 -1.16269126E-05  3.43481574E-04  3.61582992E-04  9.18276502E-05
  1.00375937E-04  2.32228621E-03  1.35576123E-03  3.44308393E-04  3.21101007E-04
 -1.62300328E-04 -1.49918444E-04 -1.67739799E-04 -3.88137200E-06 -5.62216092E-05
 -1.42779286E-05 -3.11791710E-05  7.57436418E-05  2.95631092E-05 -3.03478186E-05
 -1.16259200E-05  3.43501590E-04 -2.60307492E-04  2.67217697E-04  1.00371873E-04
  2.32231597E-03 -9.76065560E-04  1.00198013E-03  3.21109063E-04 -1.55937402E-04
 -1.56308088E-04 -1.67744477E-04  8.14406156E-06  4.04810047E-05 -4.15552122E-05
 -3.11794319E-05  7.57448762E-05  1.15003283E-05  4.07758229E-05 -1.16258053E-05
  3.43505833E-04 -1.01262431E-04 -3.59040448E-04  1.00371537E-04  2.32232318E-03
 -3.79699938E-04 -1.34629281E-03  3.21110516E-04 -1.50107368E-04 -1.62142463E-04
 -1.67745174E-04 -4.25751984E-06  1.57480577E-05  5.58363360E-05  9.96077699E-01
  2.69299626E-02  4.78749074E-09  2.67922027E-09 -8.25298596E-04 -1.41468697E-02
  8.27855224E-09 -6.71700508E-10  9.65440397E-04 -1.52077355E-03 -1.52075533E-03
 -1.17292041E-03 -3.90166533E-09 -8.24463740E-09 -3.10736019E-09  2.56900045E-04
  1.94595183E-03  1.08089862E-02 -3.88541640E-02 -1.61939480E-04 -7.60501551E-06
 -5.48429652E-05 -9.95475941E-04 -3.12791550E-06 -1.94366471E-04 -1.08038851E-05
  3.05588705E-04 -4.77704021E-05  5.18585055E-04  1.07609953E-05  4.00811690E-06
  1.00246033E-04  5.42845724E-05  8.52131602E-05  1.01779118E-06 -2.89546332E-05
  1.95809698E-01 -7.03849349E-01  2.02138255E-03 -2.04976257E-03 -9.92083242E-04
 -1.80053584E-02  5.62481188E-04 -7.23466873E-04 -2.03181667E-04  5.37778354E-03
 -7.54411410E-04  1.17486742E-03  1.99437261E-04  9.09450097E-04  9.97665701E-04
  1.00933717E-03  1.58983815E-04  6.72152785E-05 -9.10420841E-05 -2.09179090E-01
  7.51905015E-01 -8.49104939E-04 -2.95598621E-03  1.05964919E-03  1.92313221E-02
 -1.81244504E-04 -9.58366432E-04  2.17956969E-04 -5.72586756E-03  1.67070994E-04
  1.45801425E-03 -2.13598662E-04 -1.12399200E-03 -9.15573636E-04 -1.08138782E-03
  1.28064373E-04 -2.00911201E-05 -1.18887306E-04 -1.67088277E-06  6.17810244E-06
  2.93485717E-05 -1.45631604E-04  1.03704659E-08 -5.34548690E-06 -1.49960590E-04
  7.44119134E-04  1.45609680E-06  1.68010160E-04 -1.73156754E-04  7.18251790E-08
 -3.23268840E-04 -5.21714620E-05  2.58877925E-04 -7.67116623E-07  4.02887551E-06
 -2.27386675E-01  8.17358778E-01  3.23918820E-03  8.24299978E-04  1.15256934E-03
  2.09191172E-02  1.03115929E-03  2.52187033E-04  2.33248050E-04 -6.30210274E-03
 -1.58302298E-03 -3.75468772E-04 -2.29972333E-04 -9.69434779E-04 -1.23854451E-03
 -1.16273245E-03  9.01294723E-05  1.26228992E-04  3.05953393E-05  1.33226150E-01
 -4.78883759E-01  1.34763910E-03 -1.42255184E-03 -6.74324477E-04 -1.22373984E-02
  5.41745238E-04 -3.30167660E-04 -1.41738298E-04  3.58487093E-03 -9.24559919E-04
  3.29595615E-04  1.37803448E-04  7.29432018E-04  5.76819797E-04  6.98899830E-04
  1.09439003E-04  7.05582650E-05 -3.83295788E-05  1.12961360E-01 -4.06040861E-01
  4.23135792E-04  1.60688638E-03 -5.71661861E-04 -1.03741560E-02  3.02030311E-04
  4.55453879E-04 -1.20666086E-04  3.02927183E-03 -6.41777494E-04 -5.88176338E-04
  1.17136577E-04  6.65640917E-04  4.43127522E-04  5.94284678E-04  2.71651377E-05
  4.19323592E-05  5.57948514E-05  1.22659086E-05 -4.53593223E-05  1.45524067E-04
  2.92982272E-05 -7.36657032E-08  3.92325194E-05 -7.43626971E-04 -1.49712385E-04
 -1.07013411E-05 -2.60831709E-04  2.98621963E-04 -5.27802212E-07 -1.96895355E-04
 -2.58700458E-04 -5.20831162E-05  5.63651934E-06 -2.95683284E-05 -1.74342667E-01
  6.26554124E-01  2.50041877E-03  6.34895679E-04  8.66924327E-04  1.57112156E-02
  6.65428390E-04  1.69624032E-04  2.65747642E-04 -2.98985421E-03 -1.52282066E-05
 -5.59907744E-06 -2.28673324E-04 -7.64602981E-04 -1.14407203E-03 -1.19383930E-03
  1.18573789E-04  1.06345137E-04  2.71028169E-05 -1.61636177E-01  5.80879952E-01
 -1.67058325E-03  1.71332783E-03  8.02567123E-04  1.45429284E-02 -4.33317063E-04
  4.54135935E-04  2.52540145E-04 -2.64147404E-03 -6.31662961E-05  3.93090564E-05
 -2.15714354E-04 -8.94802043E-04 -8.90044739E-04 -1.12824550E-03 -2.38867705E-04
 -7.07995994E-05  7.40851452E-05 -1.60314498E-01  5.76129104E-01 -6.45265708E-04
 -2.28415618E-03  7.95873562E-04  1.44214092E-02 -1.63043461E-04 -5.99785576E-04
  2.51166920E-04 -2.60523404E-03 -3.76360103E-05 -7.39888948E-05 -2.14365789E-04
 -1.06012953E-03 -7.11836747E-04 -1.12142297E-03  1.26959976E-04 -2.67547834E-05
 -9.81367682E-05 -3.23549241E-04  1.19738026E-03  5.35191453E-06  1.85749596E-06
  1.88527117E-06 -1.03650393E-03 -2.73977741E-05 -9.51395768E-06  2.82245842E-04
 -5.10062944E-04 -4.87119388E-04  1.40060391E-05 -5.78870797E-06 -9.52807365E-06
 -3.30700432E-06 -1.48774797E-04  7.80821882E-04 -7.99625603E-04  3.05129443E-03
 -4.92490777E-01 -1.25079382E-01 -1.56622525E-01 -1.24525875E-03 -1.16598128E-02
 -2.96134020E-03 -3.67390091E-03 -1.27736390E-03  1.83532136E-03  4.62597370E-04
  8.98120716E-04 -2.50058593E-04  5.40707621E-04  6.07153213E-04 -2.49330247E-04
 -2.09801958E-04 -5.34452210E-05 -8.86186309E-04  3.36997571E-03  3.92732753E-01
 -4.03240857E-01 -1.73582639E-01 -1.41333832E-03  9.28574698E-03 -9.53495605E-03
 -4.06447011E-03 -1.22862002E-03 -1.57304080E-03  1.57193389E-03  9.73691014E-04
  1.87386242E-04  1.42600422E-04  6.46534318E-04  5.56903013E-04  1.70200269E-04
 -1.76725409E-04 -8.97258906E-04  3.41074040E-03  1.54645831E-01  5.48508375E-01
 -1.75752086E-01 -1.43483750E-03  3.65560059E-03  1.29676561E-02 -4.11443030E-03
 -1.22239064E-03 -6.40608184E-04 -2.17367955E-03  9.83356142E-04  5.87117145E-04
 -2.52101264E-04  6.51571092E-04 -2.85215170E-04  6.64073179E-05  2.40030618E-04
 -2.02970142E-05 -2.41975886E-03  2.54215022E-05  9.35103940E-06 -1.44367811E-04
  4.12261913E-03  5.62860846E-05  2.07076636E-05 -1.04403005E-03  7.97402165E-04
  8.73120382E-04 -1.83678966E-04 -1.81575571E-05 -3.06318683E-05 -1.12669728E-05
 -1.37450689E-04 -1.06330962E-03  5.70041388E-05 -2.10650952E-04  3.52760308E-02
  7.68908961E-03  1.11692408E-02  1.08445814E-04  8.28181937E-04  1.68515624E-04
  2.57699862E-04 -1.94855601E-05 -4.32608417E-05 -6.80526187E-04 -5.12345804E-05
  1.07856191E-04 -1.33237272E-04 -2.77152042E-05 -2.02339360E-04  2.55295603E-05
 -2.48397182E-05  1.03981465E-03 -3.82894242E-03 -4.59552859E-01  4.70808565E-01
  2.03745542E-01  2.01692912E-03 -1.07419681E-02  1.09960378E-02  4.69241184E-03
 -5.73351020E-04  2.51914406E-03 -3.08442995E-03 -9.09342999E-04 -1.32909716E-04
 -3.39209331E-04 -4.74845668E-04 -4.51318424E-04 -2.53183119E-04  2.36588821E-04
 -1.07792474E-03  3.96767597E-03  1.85672815E-01  6.56230540E-01 -2.11213768E-01
 -2.09543041E-03  4.34286161E-03  1.53290717E-02 -4.86341166E-03  6.20107619E-04
 -8.31201221E-04 -4.05665261E-03  9.39691432E-04  5.34982717E-04 -4.44800996E-05
  4.88622132E-04 -3.37954737E-04  1.11163375E-04  3.42245106E-04  1.49754553E-07
  1.77038428E-05 -1.10432328E-04  5.25187098E-04  1.05470392E-06 -3.01538249E-05
 -2.44645001E-04  1.16345485E-03  7.63639592E-06 -4.23121602E-04  4.10900743E-04
  1.34426755E-06  8.05397936E-04  1.33139187E-04 -6.33169483E-04  1.00412552E-06
  7.77875734E-06  1.26417675E-03 -4.65952865E-03  7.75345530E-01  1.96959517E-01
  2.47706487E-01  2.43950882E-03  1.81221092E-02  4.60403073E-03  5.70761503E-03
 -6.26127012E-04 -4.63521604E-03 -1.14918075E-03 -1.11377568E-03  1.30364013E-04
 -7.01380625E-04 -5.87301863E-04  2.72335044E-04  4.05566514E-04  1.04306364E-04
 -6.11803944E-04  2.24703472E-03  2.69285104E-01 -2.77924213E-01 -1.19882803E-01
 -1.20340519E-03  6.27872813E-03 -6.49446599E-03 -2.75734525E-03  4.31143158E-04
 -2.06525070E-03  1.33510068E-03  5.24192799E-04  3.25100421E-04 -4.33684915E-05
  2.66179171E-04  2.48546026E-04  1.25646153E-04 -1.65704492E-04 -5.23314754E-04
  1.92125523E-03  8.87965688E-02  3.18862579E-01 -1.02543754E-01 -1.03157053E-03
  2.06239071E-03  7.44486872E-03 -2.35805656E-03  3.81273008E-04 -1.11221109E-03
 -1.82574285E-03  4.46930875E-04  3.78163431E-04 -1.36655098E-04  2.25921135E-04
  7.16040275E-05  2.21307277E-05  1.77541212E-04  1.02220636E-06  1.20929036E-04
  5.24563104E-04  1.10102775E-04  7.20855786E-06 -2.06013025E-04  1.16209095E-03
  2.43913404E-04  5.21426862E-05 -7.38228582E-04  6.54762187E-04  9.18065300E-06
 -4.81231103E-04 -6.32440708E-04 -1.32744538E-04  6.86963032E-06  5.31550188E-05
  1.86501747E-06  1.36595210E-05 -3.61151649E-02  1.36206274E-01  5.57714003E-03
  6.10616964E-05 -7.75522638E-04  2.89445130E-03  1.15071595E-04 -3.26770973E-04
  1.66600796E-04 -1.32344669E-03 -7.24238197E-05  4.64969393E-05 -2.83796700E-05
  3.71850040E-05 -1.03600656E-04 -6.86686464E-06 -2.02546173E-06 -4.74560090E-06
 -3.45702870E-05 -3.96290152E-01 -3.80631639E-01 -1.45563376E-02 -1.54853828E-04
 -8.19679627E-03 -7.84230605E-03 -3.00231762E-04  8.28639537E-04  1.90458077E-03
  2.43609049E-03  1.85541390E-04  4.45559801E-05 -9.03720235E-05 -9.43529524E-05
 -3.11177392E-05 -5.77265115E-05 -3.10916274E-05  2.87531546E-06  2.09227284E-05
  7.85525861E-01 -2.19096303E-01  8.84781505E-03  9.37605860E-05  1.61660551E-02
 -4.49492719E-03  1.82498465E-04 -5.01729110E-04 -3.97153771E-03  1.38174739E-03
 -1.12576586E-04 -6.48295540E-05  9.25582293E-05  5.71305632E-05 -1.81952847E-04
  1.03335435E-04 -1.78074682E-05  1.39257330E-09  6.31882907E-09  2.32134276E-05
 -3.05005942E-05 -9.82763858E-09 -1.90931454E-08 -3.34229663E-04  4.38858874E-04
  8.71008832E-08  7.57721923E-06 -7.56506459E-06 -5.54466114E-09 -9.14073839E-05
  5.63684965E-05 -7.40573038E-05 -1.93065126E-09 -1.22401306E-07  9.67271996E-06
  7.07319946E-05  1.30244778E-03 -3.65525046E-02  2.91553633E-02  3.16377532E-04
 -1.30077054E-05 -7.80797984E-04  6.01521715E-04 -1.69309215E-03 -8.97274915E-04
  7.66650957E-05 -3.76583930E-04 -5.81930799E-06  9.96136096E-05  1.92699026E-04
 -1.21512558E-05 -3.55917770E-05 -1.02527479E-05 -4.18449137E-06 -3.04607188E-05
  5.85055706E-01  5.74733333E-01 -1.29260767E-02 -1.36482127E-04  1.19559473E-02
  1.17731532E-02 -2.66538496E-04  7.30287490E-04 -2.86067893E-03 -2.27496504E-03
  1.63753451E-04 -3.21215658E-04  2.80863295E-04 -8.31771448E-05 -1.65531555E-05
  7.69106635E-05  9.69704888E-05 -5.52527122E-06 -4.01849931E-05  5.36290542E-01
 -1.55996998E-01 -1.71249752E-02 -1.80114046E-04  1.09275370E-02 -3.20656364E-03
 -3.53128299E-04  9.63761711E-04 -2.28366714E-03  1.41591050E-04  2.16521156E-04
 -1.85187431E-04  1.31956215E-04 -1.09773763E-04 -2.34006030E-04  8.18697448E-05
 -4.47504394E-05  1.00540780E-08  4.59440918E-08  7.38098719E-05  2.51396950E-05
 -6.65299181E-08 -1.44447648E-07 -1.06261855E-03 -3.61804297E-04  5.91162726E-07
 -1.47830554E-04  1.47914941E-04 -3.73212592E-08 -7.58208058E-05  1.79224619E-04
  6.10415883E-05 -1.20067486E-08 -8.28953716E-07  8.42542640E-08  6.12368863E-07
 -2.41865763E-01  9.52092299E-01  2.64001034E-04  2.74539996E-06 -4.95694907E-03
  1.95111348E-02  5.45014420E-06 -1.46965721E-05  1.11484831E-03 -4.41976989E-03
 -3.34719897E-06 -1.51288848E-04  1.52100068E-04  1.67348732E-06  3.21545118E-04
 -3.49662840E-05  1.36367262E-04  7.61619321E-06  5.51010211E-05  8.19850223E-02
  7.08267527E-02  2.41720597E-02  2.47466612E-04  1.65721857E-03  1.37845160E-03
  4.98420818E-04 -1.32418274E-03  4.00734707E-04 -5.35713781E-04 -3.01061031E-04
 -8.54614764E-05  1.58397333E-04  1.50893800E-04  5.02208597E-05  4.01163411E-05
 -8.22329111E-07 -7.70437012E-06 -5.57037077E-05 -9.43187024E-02  1.97730956E-02
 -2.45240212E-02 -2.50234399E-04 -1.87874058E-03  3.51788850E-04 -5.05652634E-04
  1.33897505E-03 -1.47744485E-04 -6.55155850E-04  3.04771385E-04 -9.85378693E-06