68996875                                                                
Freq      RMP2-FC                                                     6-31G(d)            
Number of atoms                            I               27
Info1-9                                    I   N=           9
          39          37        1002           0           0         100
           6           2           1
Charge                                     I                0
Multiplicity                               I                1
Number of electrons                        I               84
Number of alpha electrons                  I               42
Number of beta electrons                   I               42
Number of basis functions                  I              197
Number of independent functions            I              197
Number of point charges in /Mol/           I                0
Number of translation vectors              I                0
Atomic numbers                             I   N=          27
           8           6           6           6           6           6
           6           6           6           6           6           1
           1           1           1           1           1           1
           1           1           1           1           1           1
           1           1           1
Nuclear charges                            R   N=          27
  8.00000000E+00  6.00000000E+00  6.00000000E+00  6.00000000E+00  6.00000000E+00
  6.00000000E+00  6.00000000E+00  6.00000000E+00  6.00000000E+00  6.00000000E+00
  6.00000000E+00  1.00000000E+00  1.00000000E+00  1.00000000E+00  1.00000000E+00
  1.00000000E+00  1.00000000E+00  1.00000000E+00  1.00000000E+00  1.00000000E+00
  1.00000000E+00  1.00000000E+00  1.00000000E+00  1.00000000E+00  1.00000000E+00
  1.00000000E+00  1.00000000E+00
Current cartesian coordinates              R   N=          81
  8.39218221E-06 -1.76187533E+00 -9.82827886E-01 -1.35797952E+00  2.15202640E+00
 -5.54366876E-02  1.35795735E+00  2.15203771E+00 -5.54257570E-02 -2.09618649E+00
 -2.64848953E-01 -6.33070979E-01  2.09618805E+00 -2.64832069E-01 -6.33051555E-01
 -4.57270056E+00 -1.57365273E+00 -8.80503893E-01  4.57271442E+00 -1.57360900E+00
 -8.80502193E-01 -3.00117789E+00  4.39125538E+00  4.73367797E-01  3.00113340E+00
  4.39128030E+00  4.73390276E-01 -4.98974368E+00 -3.55976062E+00  1.18424840E+00
  4.98978328E+00 -3.55973765E+00  1.18422473E+00  6.07113439E+00 -1.47478148E-01
 -8.14659829E-01  4.68892121E+00 -2.47221338E+00 -2.74552214E+00 -4.68890750E+00
 -2.47227925E+00 -2.74551301E+00 -6.07113371E+00 -1.47535319E-01 -8.14670081E-01
 -2.64653523E+00  5.92058389E+00 -8.76267431E-01 -5.00403059E+00  3.89803418E+00
  3.53642059E-01 -2.65217984E+00  5.14931183E+00  2.36805853E+00  5.00399114E+00
  3.89805931E+00  3.53747379E-01  2.64653737E+00  5.92058181E+00 -8.76288039E-01
  2.65206624E+00  5.14937396E+00  2.36805323E+00  4.94837024E+00 -2.67791617E+00
  3.05250159E+00  6.81386546E+00 -4.50470630E+00  9.47141833E-01  3.50101241E+00
 -4.98854677E+00  1.11461264E+00 -3.50096363E+00 -4.98856002E+00  1.11464295E+00
 -6.81382147E+00 -4.50474384E+00  9.47188611E-01 -4.94832380E+00 -2.67791567E+00
  3.05251398E+00
Force Field                                I                0
Int Atom Types                             I   N=          27
           0           0           0           0           0           0
           0           0           0           0           0           0
           0           0           0           0           0           0
           0           0           0           0           0           0
           0           0           0
MM charges                                 R   N=          27
  0.00000000E+00  0.00000000E+00  0.00000000E+00  0.00000000E+00  0.00000000E+00
  0.00000000E+00  0.00000000E+00  0.00000000E+00  0.00000000E+00  0.00000000E+00
  0.00000000E+00  0.00000000E+00  0.00000000E+00  0.00000000E+00  0.00000000E+00
  0.00000000E+00  0.00000000E+00  0.00000000E+00  0.00000000E+00  0.00000000E+00
  0.00000000E+00  0.00000000E+00  0.00000000E+00  0.00000000E+00  0.00000000E+00
  0.00000000E+00  0.00000000E+00
Integer atomic weights                     I   N=          27
          16          12          12          12          12          12
          12          12          12          12          12           1
           1           1           1           1           1           1
           1           1           1           1           1           1
           1           1           1
Real atomic weights                        R   N=          27
  1.59949146E+01  1.20000000E+01  1.20000000E+01  1.20000000E+01  1.20000000E+01
  1.20000000E+01  1.20000000E+01  1.20000000E+01  1.20000000E+01  1.20000000E+01
  1.20000000E+01  1.00782504E+00  1.00782504E+00  1.00782504E+00  1.00782504E+00
  1.00782504E+00  1.00782504E+00  1.00782504E+00  1.00782504E+00  1.00782504E+00
  1.00782504E+00  1.00782504E+00  1.00782504E+00  1.00782504E+00  1.00782504E+00
  1.00782504E+00  1.00782504E+00
Atom fragment info                         I   N=          27
           0           0           0           0           0           0
           0           0           0           0           0           0
           0           0           0           0           0           0
           0           0           0           0           0           0
           0           0           0
Atom residue num                           I   N=          27
           0           0           0           0           0           0
           0           0           0           0           0           0
           0           0           0           0           0           0
           0           0           0           0           0           0
           0           0           0
Nuclear spins                              I   N=          27
           0           0           0           0           0           0
           0           0           0           0           0           1
           1           1           1           1           1           1
           1           1           1           1           1           1
           1           1           1
Nuclear ZEff                               R   N=          27
 -5.60000000E+00 -3.60000000E+00 -3.60000000E+00 -3.60000000E+00 -3.60000000E+00
 -3.60000000E+00 -3.60000000E+00 -3.60000000E+00 -3.60000000E+00 -3.60000000E+00
 -3.60000000E+00 -1.00000000E+00 -1.00000000E+00 -1.00000000E+00 -1.00000000E+00
 -1.00000000E+00 -1.00000000E+00 -1.00000000E+00 -1.00000000E+00 -1.00000000E+00
 -1.00000000E+00 -1.00000000E+00 -1.00000000E+00 -1.00000000E+00 -1.00000000E+00
 -1.00000000E+00 -1.00000000E+00
Nuclear QMom                               R   N=          27
  0.00000000E+00  0.00000000E+00  0.00000000E+00  0.00000000E+00  0.00000000E+00
  0.00000000E+00  0.00000000E+00  0.00000000E+00  0.00000000E+00  0.00000000E+00
  0.00000000E+00  0.00000000E+00  0.00000000E+00  0.00000000E+00  0.00000000E+00
  0.00000000E+00  0.00000000E+00  0.00000000E+00  0.00000000E+00  0.00000000E+00
  0.00000000E+00  0.00000000E+00  0.00000000E+00  0.00000000E+00  0.00000000E+00
  0.00000000E+00  0.00000000E+00
Nuclear GFac                               R   N=          27
  0.00000000E+00  0.00000000E+00  0.00000000E+00  0.00000000E+00  0.00000000E+00
  0.00000000E+00  0.00000000E+00  0.00000000E+00  0.00000000E+00  0.00000000E+00
  0.00000000E+00  2.79284600E+00  2.79284600E+00  2.79284600E+00  2.79284600E+00
  2.79284600E+00  2.79284600E+00  2.79284600E+00  2.79284600E+00  2.79284600E+00
  2.79284600E+00  2.79284600E+00  2.79284600E+00  2.79284600E+00  2.79284600E+00
  2.79284600E+00  2.79284600E+00
MicOpt                                     I   N=          27
          -1          -1          -1          -1          -1          -1
          -1          -1          -1          -1          -1          -1
          -1          -1          -1          -1          -1          -1
          -1          -1          -1          -1          -1          -1
          -1          -1          -1
Number of contracted shells                I               76
Number of primitive shells                 I              185
Pure/Cartesian d shells                    I                1
Pure/Cartesian f shells                    I                0
Highest angular momentum                   I                2
Largest degree of contraction              I                6
Shell types                                I   N=          76
           0          -1          -1           2           0          -1
          -1           2           0          -1          -1           2
           0          -1          -1           2           0          -1
          -1           2           0          -1          -1           2
           0          -1          -1           2           0          -1
          -1           2           0          -1          -1           2
           0          -1          -1           2           0          -1
          -1           2           0           0           0           0
           0           0           0           0           0           0
           0           0           0           0           0           0
           0           0           0           0           0           0
           0           0           0           0           0           0
           0           0           0           0
Number of primitives per shell             I   N=          76
           6           3           1           1           6           3
           1           1           6           3           1           1
           6           3           1           1           6           3
           1           1           6           3           1           1
           6           3           1           1           6           3
           1           1           6           3           1           1
           6           3           1           1           6           3
           1           1           3           1           3           1
           3           1           3           1           3           1
           3           1           3           1           3           1
           3           1           3           1           3           1
           3           1           3           1           3           1
           3           1           3           1
Shell to atom map                          I   N=          76
           1           1           1           1           2           2
           2           2           3           3           3           3
           4           4           4           4           5           5
           5           5           6           6           6           6
           7           7           7           7           8           8
           8           8           9           9           9           9
          10          10          10          10          11          11
          11          11          12          12          13          13
          14          14          15          15          16          16
          17          17          18          18          19          19
          20          20          21          21          22          22
          23          23          24          24          25          25
          26          26          27          27
Primitive exponents                        R   N=         185
  5.48467166E+03  8.25234946E+02  1.88046958E+02  5.29645000E+01  1.68975704E+01
  5.79963534E+00  1.55396162E+01  3.59993359E+00  1.01376175E+00  2.70005823E-01
  8.00000000E-01  3.04752488E+03  4.57369518E+02  1.03948685E+02  2.92101553E+01
  9.28666296E+00  3.16392696E+00  7.86827235E+00  1.88128854E+00  5.44249258E-01
  1.68714478E-01  8.00000000E-01  3.04752488E+03  4.57369518E+02  1.03948685E+02
  2.92101553E+01  9.28666296E+00  3.16392696E+00  7.86827235E+00  1.88128854E+00
  5.44249258E-01  1.68714478E-01  8.00000000E-01  3.04752488E+03  4.57369518E+02
  1.03948685E+02  2.92101553E+01  9.28666296E+00  3.16392696E+00  7.86827235E+00
  1.88128854E+00  5.44249258E-01  1.68714478E-01  8.00000000E-01  3.04752488E+03
  4.57369518E+02  1.03948685E+02  2.92101553E+01  9.28666296E+00  3.16392696E+00
  7.86827235E+00  1.88128854E+00  5.44249258E-01  1.68714478E-01  8.00000000E-01
  3.04752488E+03  4.57369518E+02  1.03948685E+02  2.92101553E+01  9.28666296E+00
  3.16392696E+00  7.86827235E+00  1.88128854E+00  5.44249258E-01  1.68714478E-01
  8.00000000E-01  3.04752488E+03  4.57369518E+02  1.03948685E+02  2.92101553E+01
  9.28666296E+00  3.16392696E+00  7.86827235E+00  1.88128854E+00  5.44249258E-01
  1.68714478E-01  8.00000000E-01  3.04752488E+03  4.57369518E+02  1.03948685E+02
  2.92101553E+01  9.28666296E+00  3.16392696E+00  7.86827235E+00  1.88128854E+00
  5.44249258E-01  1.68714478E-01  8.00000000E-01  3.04752488E+03  4.57369518E+02
  1.03948685E+02  2.92101553E+01  9.28666296E+00  3.16392696E+00  7.86827235E+00
  1.88128854E+00  5.44249258E-01  1.68714478E-01  8.00000000E-01  3.04752488E+03
  4.57369518E+02  1.03948685E+02  2.92101553E+01  9.28666296E+00  3.16392696E+00
  7.86827235E+00  1.88128854E+00  5.44249258E-01  1.68714478E-01  8.00000000E-01
  3.04752488E+03  4.57369518E+02  1.03948685E+02  2.92101553E+01  9.28666296E+00
  3.16392696E+00  7.86827235E+00  1.88128854E+00  5.44249258E-01  1.68714478E-01
  8.00000000E-01  1.87311370E+01  2.82539436E+00  6.40121692E-01  1.61277759E-01
  1.87311370E+01  2.82539436E+00  6.40121692E-01  1.61277759E-01  1.87311370E+01
  2.82539436E+00  6.40121692E-01  1.61277759E-01  1.87311370E+01  2.82539436E+00
  6.40121692E-01  1.61277759E-01  1.87311370E+01  2.82539436E+00  6.40121692E-01
  1.61277759E-01  1.87311370E+01  2.82539436E+00  6.40121692E-01  1.61277759E-01
  1.87311370E+01  2.82539436E+00  6.40121692E-01  1.61277759E-01  1.87311370E+01
  2.82539436E+00  6.40121692E-01  1.61277759E-01  1.87311370E+01  2.82539436E+00
  6.40121692E-01  1.61277759E-01  1.87311370E+01  2.82539436E+00  6.40121692E-01
  1.61277759E-01  1.87311370E+01  2.82539436E+00  6.40121692E-01  1.61277759E-01
  1.87311370E+01  2.82539436E+00  6.40121692E-01  1.61277759E-01  1.87311370E+01
  2.82539436E+00  6.40121692E-01  1.61277759E-01  1.87311370E+01  2.82539436E+00
  6.40121692E-01  1.61277759E-01  1.87311370E+01  2.82539436E+00  6.40121692E-01
  1.61277759E-01  1.87311370E+01  2.82539436E+00  6.40121692E-01  1.61277759E-01
Contraction coefficients                   R   N=         185
  1.83107443E-03  1.39501722E-02  6.84450781E-02  2.32714336E-01  4.70192898E-01
  3.58520853E-01 -1.10777550E-01 -1.48026263E-01  1.13076702E+00  1.00000000E+00
  1.00000000E+00  1.83473713E-03  1.40373228E-02  6.88426223E-02  2.32184443E-01
  4.67941348E-01  3.62311985E-01 -1.19332420E-01 -1.60854152E-01  1.14345644E+00
  1.00000000E+00  1.00000000E+00  1.83473713E-03  1.40373228E-02  6.88426223E-02
  2.32184443E-01  4.67941348E-01  3.62311985E-01 -1.19332420E-01 -1.60854152E-01
  1.14345644E+00  1.00000000E+00  1.00000000E+00  1.83473713E-03  1.40373228E-02
  6.88426223E-02  2.32184443E-01  4.67941348E-01  3.62311985E-01 -1.19332420E-01
 -1.60854152E-01  1.14345644E+00  1.00000000E+00  1.00000000E+00  1.83473713E-03
  1.40373228E-02  6.88426223E-02  2.32184443E-01  4.67941348E-01  3.62311985E-01
 -1.19332420E-01 -1.60854152E-01  1.14345644E+00  1.00000000E+00  1.00000000E+00
  1.83473713E-03  1.40373228E-02  6.88426223E-02  2.32184443E-01  4.67941348E-01
  3.62311985E-01 -1.19332420E-01 -1.60854152E-01  1.14345644E+00  1.00000000E+00
  1.00000000E+00  1.83473713E-03  1.40373228E-02  6.88426223E-02  2.32184443E-01
  4.67941348E-01  3.62311985E-01 -1.19332420E-01 -1.60854152E-01  1.14345644E+00
  1.00000000E+00  1.00000000E+00  1.83473713E-03  1.40373228E-02  6.88426223E-02
  2.32184443E-01  4.67941348E-01  3.62311985E-01 -1.19332420E-01 -1.60854152E-01
  1.14345644E+00  1.00000000E+00  1.00000000E+00  1.83473713E-03  1.40373228E-02
  6.88426223E-02  2.32184443E-01  4.67941348E-01  3.62311985E-01 -1.19332420E-01
 -1.60854152E-01  1.14345644E+00  1.00000000E+00  1.00000000E+00  1.83473713E-03
  1.40373228E-02  6.88426223E-02  2.32184443E-01  4.67941348E-01  3.62311985E-01
 -1.19332420E-01 -1.60854152E-01  1.14345644E+00  1.00000000E+00  1.00000000E+00
  1.83473713E-03  1.40373228E-02  6.88426223E-02  2.32184443E-01  4.67941348E-01
  3.62311985E-01 -1.19332420E-01 -1.60854152E-01  1.14345644E+00  1.00000000E+00
  1.00000000E+00  3.34946043E-02  2.34726953E-01  8.13757326E-01  1.00000000E+00
  3.34946043E-02  2.34726953E-01  8.13757326E-01  1.00000000E+00  3.34946043E-02
  2.34726953E-01  8.13757326E-01  1.00000000E+00  3.34946043E-02  2.34726953E-01
  8.13757326E-01  1.00000000E+00  3.34946043E-02  2.34726953E-01  8.13757326E-01
  1.00000000E+00  3.34946043E-02  2.34726953E-01  8.13757326E-01  1.00000000E+00
  3.34946043E-02  2.34726953E-01  8.13757326E-01  1.00000000E+00  3.34946043E-02
  2.34726953E-01  8.13757326E-01  1.00000000E+00  3.34946043E-02  2.34726953E-01
  8.13757326E-01  1.00000000E+00  3.34946043E-02  2.34726953E-01  8.13757326E-01
  1.00000000E+00  3.34946043E-02  2.34726953E-01  8.13757326E-01  1.00000000E+00
  3.34946043E-02  2.34726953E-01  8.13757326E-01  1.00000000E+00  3.34946043E-02
  2.34726953E-01  8.13757326E-01  1.00000000E+00  3.34946043E-02  2.34726953E-01
  8.13757326E-01  1.00000000E+00  3.34946043E-02  2.34726953E-01  8.13757326E-01
  1.00000000E+00  3.34946043E-02  2.34726953E-01  8.13757326E-01  1.00000000E+00
P(S=P) Contraction coefficients            R   N=         185
  0.00000000E+00  0.00000000E+00  0.00000000E+00  0.00000000E+00  0.00000000E+00
  0.00000000E+00  7.08742682E-02  3.39752839E-01  7.27158577E-01  1.00000000E+00
  0.00000000E+00  0.00000000E+00  0.00000000E+00  0.00000000E+00  0.00000000E+00
  0.00000000E+00  0.00000000E+00  6.89990666E-02  3.16423961E-01  7.44308291E-01
  1.00000000E+00  0.00000000E+00  0.00000000E+00  0.00000000E+00  0.00000000E+00
  0.00000000E+00  0.00000000E+00  0.00000000E+00  6.89990666E-02  3.16423961E-01
  7.44308291E-01  1.00000000E+00  0.00000000E+00  0.00000000E+00  0.00000000E+00
  0.00000000E+00  0.00000000E+00  0.00000000E+00  0.00000000E+00  6.89990666E-02
  3.16423961E-01  7.44308291E-01  1.00000000E+00  0.00000000E+00  0.00000000E+00
  0.00000000E+00  0.00000000E+00  0.00000000E+00  0.00000000E+00  0.00000000E+00
  6.89990666E-02  3.16423961E-01  7.44308291E-01  1.00000000E+00  0.00000000E+00
  0.00000000E+00  0.00000000E+00  0.00000000E+00  0.00000000E+00  0.00000000E+00
  0.00000000E+00  6.89990666E-02  3.16423961E-01  7.44308291E-01  1.00000000E+00
  0.00000000E+00  0.00000000E+00  0.00000000E+00  0.00000000E+00  0.00000000E+00
  0.00000000E+00  0.00000000E+00  6.89990666E-02  3.16423961E-01  7.44308291E-01
  1.00000000E+00  0.00000000E+00  0.00000000E+00  0.00000000E+00  0.00000000E+00
  0.00000000E+00  0.00000000E+00  0.00000000E+00  6.89990666E-02  3.16423961E-01
  7.44308291E-01  1.00000000E+00  0.00000000E+00  0.00000000E+00  0.00000000E+00
  0.00000000E+00  0.00000000E+00  0.00000000E+00  0.00000000E+00  6.89990666E-02
  3.16423961E-01  7.44308291E-01  1.00000000E+00  0.00000000E+00  0.00000000E+00
  0.00000000E+00  0.00000000E+00  0.00000000E+00  0.00000000E+00  0.00000000E+00
  6.89990666E-02  3.16423961E-01  7.44308291E-01  1.00000000E+00  0.00000000E+00
  0.00000000E+00  0.00000000E+00  0.00000000E+00  0.00000000E+00  0.00000000E+00
  0.00000000E+00  6.89990666E-02  3.16423961E-01  7.44308291E-01  1.00000000E+00
  0.00000000E+00  0.00000000E+00  0.00000000E+00  0.00000000E+00  0.00000000E+00
  0.00000000E+00  0.00000000E+00  0.00000000E+00  0.00000000E+00  0.00000000E+00
  0.00000000E+00  0.00000000E+00  0.00000000E+00  0.00000000E+00  0.00000000E+00
  0.00000000E+00  0.00000000E+00  0.00000000E+00  0.00000000E+00  0.00000000E+00
  0.00000000E+00  0.00000000E+00  0.00000000E+00  0.00000000E+00  0.00000000E+00
  0.00000000E+00  0.00000000E+00  0.00000000E+00  0.00000000E+00  0.00000000E+00
  0.00000000E+00  0.00000000E+00  0.00000000E+00  0.00000000E+00  0.00000000E+00
  0.00000000E+00  0.00000000E+00  0.00000000E+00  0.00000000E+00  0.00000000E+00
  0.00000000E+00  0.00000000E+00  0.00000000E+00  0.00000000E+00  0.00000000E+00
  0.00000000E+00  0.00000000E+00  0.00000000E+00  0.00000000E+00  0.00000000E+00
  0.00000000E+00  0.00000000E+00  0.00000000E+00  0.00000000E+00  0.00000000E+00
  0.00000000E+00  0.00000000E+00  0.00000000E+00  0.00000000E+00  0.00000000E+00
  0.00000000E+00  0.00000000E+00  0.00000000E+00  0.00000000E+00  0.00000000E+00
Coordinates of each shell                  R   N=         228
  8.39218221E-06 -1.76187533E+00 -9.82827886E-01  8.39218221E-06 -1.76187533E+00
 -9.82827886E-01  8.39218221E-06 -1.76187533E+00 -9.82827886E-01  8.39218221E-06
 -1.76187533E+00 -9.82827886E-01 -1.35797952E+00  2.15202640E+00 -5.54366876E-02
 -1.35797952E+00  2.15202640E+00 -5.54366876E-02 -1.35797952E+00  2.15202640E+00
 -5.54366876E-02 -1.35797952E+00  2.15202640E+00 -5.54366876E-02  1.35795735E+00
  2.15203771E+00 -5.54257570E-02  1.35795735E+00  2.15203771E+00 -5.54257570E-02
  1.35795735E+00  2.15203771E+00 -5.54257570E-02  1.35795735E+00  2.15203771E+00
 -5.54257570E-02 -2.09618649E+00 -2.64848953E-01 -6.33070979E-01 -2.09618649E+00
 -2.64848953E-01 -6.33070979E-01 -2.09618649E+00 -2.64848953E-01 -6.33070979E-01
 -2.09618649E+00 -2.64848953E-01 -6.33070979E-01  2.09618805E+00 -2.64832069E-01
 -6.33051555E-01  2.09618805E+00 -2.64832069E-01 -6.33051555E-01  2.09618805E+00
 -2.64832069E-01 -6.33051555E-01  2.09618805E+00 -2.64832069E-01 -6.33051555E-01
 -4.57270056E+00 -1.57365273E+00 -8.80503893E-01 -4.57270056E+00 -1.57365273E+00
 -8.80503893E-01 -4.57270056E+00 -1.57365273E+00 -8.80503893E-01 -4.57270056E+00
 -1.57365273E+00 -8.80503893E-01  4.57271442E+00 -1.57360900E+00 -8.80502193E-01
  4.57271442E+00 -1.57360900E+00 -8.80502193E-01  4.57271442E+00 -1.57360900E+00
 -8.80502193E-01  4.57271442E+00 -1.57360900E+00 -8.80502193E-01 -3.00117789E+00
  4.39125538E+00  4.73367797E-01 -3.00117789E+00  4.39125538E+00  4.73367797E-01
 -3.00117789E+00  4.39125538E+00  4.73367797E-01 -3.00117789E+00  4.39125538E+00
  4.73367797E-01  3.00113340E+00  4.39128030E+00  4.73390276E-01  3.00113340E+00
  4.39128030E+00  4.73390276E-01  3.00113340E+00  4.39128030E+00  4.73390276E-01
  3.00113340E+00  4.39128030E+00  4.73390276E-01 -4.98974368E+00 -3.55976062E+00
  1.18424840E+00 -4.98974368E+00 -3.55976062E+00  1.18424840E+00 -4.98974368E+00
 -3.55976062E+00  1.18424840E+00 -4.98974368E+00 -3.55976062E+00  1.18424840E+00
  4.98978328E+00 -3.55973765E+00  1.18422473E+00  4.98978328E+00 -3.55973765E+00
  1.18422473E+00  4.98978328E+00 -3.55973765E+00  1.18422473E+00  4.98978328E+00
 -3.55973765E+00  1.18422473E+00  6.07113439E+00 -1.47478148E-01 -8.14659829E-01
  6.07113439E+00 -1.47478148E-01 -8.14659829E-01  4.68892121E+00 -2.47221338E+00
 -2.74552214E+00  4.68892121E+00 -2.47221338E+00 -2.74552214E+00 -4.68890750E+00
 -2.47227925E+00 -2.74551301E+00 -4.68890750E+00 -2.47227925E+00 -2.74551301E+00
 -6.07113371E+00 -1.47535319E-01 -8.14670081E-01 -6.07113371E+00 -1.47535319E-01
 -8.14670081E-01 -2.64653523E+00  5.92058389E+00 -8.76267431E-01 -2.64653523E+00
  5.92058389E+00 -8.76267431E-01 -5.00403059E+00  3.89803418E+00  3.53642059E-01
 -5.00403059E+00  3.89803418E+00  3.53642059E-01 -2.65217984E+00  5.14931183E+00
  2.36805853E+00 -2.65217984E+00  5.14931183E+00  2.36805853E+00  5.00399114E+00
  3.89805931E+00  3.53747379E-01  5.00399114E+00  3.89805931E+00  3.53747379E-01
  2.64653737E+00  5.92058181E+00 -8.76288039E-01  2.64653737E+00  5.92058181E+00
 -8.76288039E-01  2.65206624E+00  5.14937396E+00  2.36805323E+00  2.65206624E+00
  5.14937396E+00  2.36805323E+00  4.94837024E+00 -2.67791617E+00  3.05250159E+00
  4.94837024E+00 -2.67791617E+00  3.05250159E+00  6.81386546E+00 -4.50470630E+00
  9.47141833E-01  6.81386546E+00 -4.50470630E+00  9.47141833E-01  3.50101241E+00
 -4.98854677E+00  1.11461264E+00  3.50101241E+00 -4.98854677E+00  1.11461264E+00
 -3.50096363E+00 -4.98856002E+00  1.11464295E+00 -3.50096363E+00 -4.98856002E+00
  1.11464295E+00 -6.81382147E+00 -4.50474384E+00  9.47188611E-01 -6.81382147E+00
 -4.50474384E+00  9.47188611E-01 -4.94832380E+00 -2.67791567E+00  3.05251398E+00
 -4.94832380E+00 -2.67791567E+00  3.05251398E+00
Constraint Structure                       R   N=          81
  8.39218221E-06 -1.76187533E+00 -9.82827886E-01 -1.35797952E+00  2.15202640E+00
 -5.54366876E-02  1.35795735E+00  2.15203771E+00 -5.54257570E-02 -2.09618649E+00
 -2.64848953E-01 -6.33070979E-01  2.09618805E+00 -2.64832069E-01 -6.33051555E-01
 -4.57270056E+00 -1.57365273E+00 -8.80503893E-01  4.57271442E+00 -1.57360900E+00
 -8.80502193E-01 -3.00117789E+00  4.39125538E+00  4.73367797E-01  3.00113340E+00
  4.39128030E+00  4.73390276E-01 -4.98974368E+00 -3.55976062E+00  1.18424840E+00
  4.98978328E+00 -3.55973765E+00  1.18422473E+00  6.07113439E+00 -1.47478148E-01
 -8.14659829E-01  4.68892121E+00 -2.47221338E+00 -2.74552214E+00 -4.68890750E+00
 -2.47227925E+00 -2.74551301E+00 -6.07113371E+00 -1.47535319E-01 -8.14670081E-01
 -2.64653523E+00  5.92058389E+00 -8.76267431E-01 -5.00403059E+00  3.89803418E+00
  3.53642059E-01 -2.65217984E+00  5.14931183E+00  2.36805853E+00  5.00399114E+00
  3.89805931E+00  3.53747379E-01  2.64653737E+00  5.92058181E+00 -8.76288039E-01
  2.65206624E+00  5.14937396E+00  2.36805323E+00  4.94837024E+00 -2.67791617E+00
  3.05250159E+00  6.81386546E+00 -4.50470630E+00  9.47141833E-01  3.50101241E+00
 -4.98854677E+00  1.11461264E+00 -3.50096363E+00 -4.98856002E+00  1.11464295E+00
 -6.81382147E+00 -4.50474384E+00  9.47188611E-01 -4.94832380E+00 -2.67791567E+00
  3.05251398E+00
Num ILSW                                   I              100
ILSW                                       I   N=         100
           0           1           0           0           2           0
           0           0           0           0           0          -1
           0           0           0           0           0           0
           0           0           0           0           1           0
           1           0           0           0           0           0
           0           0      100000           0          -1           0
           0           0           0           0           0           0
           0           0           0           1           1           0
           0           0           1           0           0           0
           0           0           4          40           0           0
           0           0           0           0           0           0
           0           0           0           0           0           0
           0           0           0           0           0           0
           0           0           0           0           0           0
           0           0           0           0           0           0
           0           0           0           0           0           0
           0           0           0           0
Num RLSW                                   I               40
RLSW                                       R   N=          40
  1.00000000E+00  1.00000000E+00  1.00000000E+00  1.00000000E+00  1.00000000E+00
  0.00000000E+00  0.00000000E+00  1.00000000E+00  0.00000000E+00  0.00000000E+00
  0.00000000E+00  0.00000000E+00  1.00000000E+00  0.00000000E+00  0.00000000E+00
  0.00000000E+00  0.00000000E+00  1.00000000E+00  0.00000000E+00  0.00000000E+00
  0.00000000E+00  0.00000000E+00  1.00000000E+00  0.00000000E+00  0.00000000E+00
  0.00000000E+00  0.00000000E+00  1.00000000E+00  0.00000000E+00  0.00000000E+00
  0.00000000E+00  0.00000000E+00  0.00000000E+00  0.00000000E+00  0.00000000E+00
  0.00000000E+00  0.00000000E+00  0.00000000E+00  1.00000000E+00  1.00000000E+00
MxBond                                     I                4
NBond                                      I   N=          27
           2           3           3           3           3           4
           4           4           4           4           4           1
           1           1           1           1           1           1
           1           1           1           1           1           1
           1           1           1
IBond                                      I   N=         108
           4           5           0           0           3           4
           8           0           2           5           9           0
           1           2           6           0           1           3
           7           0           4          10          14          15
           5          11          12          13           2          16
          17          18           3          19          20          21
           6          25          26          27           7          22
          23          24           7           0           0           0
           7           0           0           0           6           0
           0           0           6           0           0           0
           8           0           0           0           8           0
           0           0           8           0           0           0
           9           0           0           0           9           0
           0           0           9           0           0           0
          11           0           0           0          11           0
           0           0          11           0           0           0
          10           0           0           0          10           0
           0           0          10           0           0           0
RBond                                      R   N=         108
  1.50000000E+00  1.50000000E+00  0.00000000E+00  0.00000000E+00  1.50000000E+00
  1.50000000E+00  1.00000000E+00  0.00000000E+00  1.50000000E+00  1.50000000E+00