
    -----------------------------------------------------------------------
          Psi4: An Open-Source Ab Initio Electronic Structure Package
                               Psi4 1.3.2 release

                         Git: Rev {HEAD} ecbda83 


    R. M. Parrish, L. A. Burns, D. G. A. Smith, A. C. Simmonett,
    A. E. DePrince III, E. G. Hohenstein, U. Bozkaya, A. Yu. Sokolov,
    R. Di Remigio, R. M. Richard, J. F. Gonthier, A. M. James,
    H. R. McAlexander, A. Kumar, M. Saitow, X. Wang, B. P. Pritchard,
    P. Verma, H. F. Schaefer III, K. Patkowski, R. A. King, E. F. Valeev,
    F. A. Evangelista, J. M. Turney, T. D. Crawford, and C. D. Sherrill,
    J. Chem. Theory Comput. 13(7) pp 3185--3197 (2017).
    (doi: 10.1021/acs.jctc.7b00174)


                         Additional Contributions by
    P. Kraus, H. Kruse, M. H. Lechner, M. C. Schieber, R. A. Shaw,
    A. Alenaizan, R. Galvelis, Z. L. Glick, S. Lehtola, and J. P. Misiewicz

    -----------------------------------------------------------------------


    Psi4 started on: Monday, 02 November 2020 05:49PM

    Process ID: 19737
    Host:       node142.bme.utexas.edu
    PSIDATADIR: /home/xy3866/psi4conda/share/psi4
    Memory:     500.0 MiB
    Threads:    8
    
  ==> Input File <==

--------------------------------------------------------------------------
#psi4
#
memory 32 gb

molecule  {
0 1
  O       -2.3650430    -0.4218480    -0.0057540
  O        2.4536110    -0.2813640    -0.0931210
  C        0.0022180    -0.3452320    -0.0325630
  C       -1.4177804     0.3603430     0.0126733
  C        1.2660220     0.5019220     0.0302860
  H       -0.0166520    -1.0502680     0.8082600
  H        0.0130480    -0.9372200    -0.9525790
  H       -1.2783560     1.1031170     0.9279430
  H       -1.2958190     1.1699640    -0.8466950
  H        1.2819000     1.0960400     0.9568030
  H        1.2985200     1.2029780    -0.8084410
  H       -3.1799330     0.1070520    -0.0035800
  H        2.4407780    -0.9321410     0.6289100
units angstrom
no_reorient  #important for SAPT in psi4, default
symmetry c1  #important for SAPT in psi4, default
}

set PROPERTIES_ORIGIN ["COM"]
properties('MP2/aug-cc-pvtz', properties = ['dipole'])
--------------------------------------------------------------------------

  Memory set to  29.802 GiB by Python driver.
    SCF Algorithm Type (re)set to DF.

*** tstart() called on node142.bme.utexas.edu
*** at Mon Nov  2 17:49:52 2020

   => Loading Basis Set <=

    Name: AUG-CC-PVTZ
    Role: ORBITAL
    Keyword: BASIS
    atoms 1-2  entry O          line   327 file /home/xy3866/psi4conda/share/psi4/basis/aug-cc-pvtz.gbs 
    atoms 3-5  entry C          line   235 file /home/xy3866/psi4conda/share/psi4/basis/aug-cc-pvtz.gbs 
    atoms 6-13 entry H          line    36 file /home/xy3866/psi4conda/share/psi4/basis/aug-cc-pvtz.gbs 


         ---------------------------------------------------------
                                   SCF
               by Justin Turney, Rob Parrish, Andy Simmonett
                          and Daniel G. A. Smith
                              RHF Reference
                        8 Threads,  30517 MiB Core
         ---------------------------------------------------------

  ==> Geometry <==

    Molecular point group: c1
    Full point group: C1

    Geometry (in Angstrom), charge = 0, multiplicity = 1:

       Center              X                  Y                   Z               Mass       
    ------------   -----------------  -----------------  -----------------  -----------------
         O           -2.350314680929    -0.378849642094     0.003983492355    15.994914619570
         O            2.468339319071    -0.238365642094    -0.083383507645    15.994914619570
         C            0.016946319071    -0.302233642094    -0.022825507645    12.000000000000
         C           -1.403052080929     0.403341357906     0.022410792355    12.000000000000
         C            1.280750319071     0.544920357906     0.040023492355    12.000000000000
         H           -0.001923680929    -1.007269642094     0.817997492355     1.007825032230
         H            0.027776319071    -0.894221642094    -0.942841507645     1.007825032230
         H           -1.263627680929     1.146115357906     0.937680492355     1.007825032230
         H           -1.281090680929     1.212962357906    -0.836957507645     1.007825032230
         H            1.296628319071     1.139038357906     0.966540492355     1.007825032230
         H            1.313248319071     1.245976357906    -0.798703507645     1.007825032230
         H           -3.165204680929     0.150050357906     0.006157492355     1.007825032230
         H            2.455506319071    -0.889142642094     0.638647492355     1.007825032230

  Running in c1 symmetry.

  Rotational constants: A =      0.72124  B =      0.06551  C =      0.06240 [cm^-1]
  Rotational constants: A =  21622.31631  B =   1963.87498  C =   1870.71752 [MHz]
  Nuclear repulsion =  186.040547995367604

  Charge       = 0
  Multiplicity = 1
  Electrons    = 42
  Nalpha       = 21
  Nbeta        = 21

  ==> Algorithm <==

  SCF Algorithm Type is DF.
  DIIS enabled.
  MOM disabled.
  Fractional occupation disabled.
  Guess Type is SAD.
  Energy threshold   = 1.00e-10
  Density threshold  = 1.00e-10
  Integral threshold = 0.00e+00

  ==> Primary Basis <==

  Basis Set: AUG-CC-PVTZ
    Blend: AUG-CC-PVTZ
    Number of shells: 142
    Number of basis function: 414
    Number of Cartesian functions: 475
    Spherical Harmonics?: true
    Max angular momentum: 3

   => Loading Basis Set <=

    Name: (AUG-CC-PVTZ AUX)
    Role: JKFIT
    Keyword: DF_BASIS_SCF
    atoms 1-2  entry O          line   286 file /home/xy3866/psi4conda/share/psi4/basis/aug-cc-pvtz-jkfit.gbs 
    atoms 3-5  entry C          line   162 file /home/xy3866/psi4conda/share/psi4/basis/aug-cc-pvtz-jkfit.gbs 
    atoms 6-13 entry H          line    70 file /home/xy3866/psi4conda/share/psi4/basis/aug-cc-pvtz-jkfit.gbs 

  ==> Pre-Iterations <==

   -------------------------------------------------------
    Irrep   Nso     Nmo     Nalpha   Nbeta   Ndocc  Nsocc
   -------------------------------------------------------
     A        414     414       0       0       0       0
   -------------------------------------------------------
    Total     414     414      21      21      21       0
   -------------------------------------------------------

  ==> Integral Setup <==

  DFHelper Memory: AOs need 1.148 GiB; user supplied 22.352 GiB. Using in-core AOs.

  ==> MemDFJK: Density-Fitted J/K Matrices <==

    J tasked:                   Yes
    K tasked:                   Yes
    wK tasked:                   No
    OpenMP threads:               8
    Memory [MiB]:             22888
    Algorithm:                 Core
    Schwarz Cutoff:           1E-12
    Mask sparsity (%):       3.2475
    Fitting Condition:        1E-10

   => Auxiliary Basis Set <=

  Basis Set: (AUG-CC-PVTZ AUX)
    Blend: AUG-CC-PVTZ-JKFIT
    Number of shells: 262
    Number of basis function: 888
    Number of Cartesian functions: 1095
    Spherical Harmonics?: true
    Max angular momentum: 4

  Minimum eigenvalue in the overlap matrix is 1.2167867520E-05.
  Using Symmetric Orthogonalization.

  SCF Guess: Superposition of Atomic Densities via on-the-fly atomic UHF.

  ==> Iterations <==

                           Total Energy        Delta E     RMS |[F,P]|

   @DF-RHF iter SAD:  -267.44278639326899   -2.67443e+02   0.00000e+00 
   @DF-RHF iter   1:  -267.82109458027753   -3.78308e-01   1.52946e-03 DIIS
   @DF-RHF iter   2:  -267.98310530935714   -1.62011e-01   8.38739e-04 DIIS
   @DF-RHF iter   3:  -268.02651146872955   -4.34062e-02   1.32044e-04 DIIS
   @DF-RHF iter   4:  -268.02890127916055   -2.38981e-03   4.71018e-05 DIIS
   @DF-RHF iter   5:  -268.02912539297154   -2.24114e-04   1.09519e-05 DIIS
   @DF-RHF iter   6:  -268.02914473443752   -1.93415e-05   2.76603e-06 DIIS
   @DF-RHF iter   7:  -268.02914625888241   -1.52444e-06   1.06610e-06 DIIS
   @DF-RHF iter   8:  -268.02914640924223   -1.50360e-07   3.31546e-07 DIIS
   @DF-RHF iter   9:  -268.02914642878864   -1.95464e-08   7.07628e-08 DIIS
   @DF-RHF iter  10:  -268.02914642992619   -1.13755e-09   1.80144e-08 DIIS
   @DF-RHF iter  11:  -268.02914642998979   -6.36078e-11   5.70355e-09 DIIS
   @DF-RHF iter  12:  -268.02914642999531   -5.51381e-12   1.75256e-09 DIIS
   @DF-RHF iter  13:  -268.02914642999599   -6.82121e-13   4.82120e-10 DIIS
   @DF-RHF iter  14:  -268.02914642999605   -5.68434e-14   1.75025e-10 DIIS
   @DF-RHF iter  15:  -268.02914642999639   -3.41061e-13   5.02056e-11 DIIS
  Energy and wave function converged.


  ==> Post-Iterations <==

    Orbital Energies [Eh]
    ---------------------

    Doubly Occupied:                                                      

       1A    -20.588854     2A    -20.558017     3A    -11.295681  
       4A    -11.276325     5A    -11.221089     6A     -1.466534  
       7A     -1.353839     8A     -1.032159     9A     -0.904429  
      10A     -0.814017    11A     -0.754954    12A     -0.689023  
      13A     -0.661662    14A     -0.647538    15A     -0.604012  
      16A     -0.575734    17A     -0.536745    18A     -0.483305  
      19A     -0.450474    20A     -0.435941    21A     -0.410365  

    Virtual:                                                              

      22A      0.025139    23A      0.035348    24A      0.040117  
      25A      0.043520    26A      0.058966    27A      0.063629  
      28A      0.064535    29A      0.067665    30A      0.098325  
      31A      0.106173    32A      0.119684    33A      0.125948  
      34A      0.127512    35A      0.134671    36A      0.136977  
      37A      0.145110    38A      0.147804    39A      0.156456  
      40A      0.175453    41A      0.191522    42A      0.197516  
      43A      0.200934    44A      0.205485    45A      0.219411  
      46A      0.223392    47A      0.235463    48A      0.252976  
      49A      0.256786    50A      0.264187    51A      0.269322  
      52A      0.281750    53A      0.294153    54A      0.295301  
      55A      0.306278    56A      0.311914    57A      0.328058  
      58A      0.332620    59A      0.346648    60A      0.348123  
      61A      0.349428    62A      0.363162    63A      0.368768  
      64A      0.377726    65A      0.379930    66A      0.388240  
      67A      0.397812    68A      0.400336    69A      0.407613  
      70A      0.414626    71A      0.422413    72A      0.435264  
      73A      0.447003    74A      0.452137    75A      0.453074  
      76A      0.459538    77A      0.463093    78A      0.466458  
      79A      0.473567    80A      0.480403    81A      0.484196  
      82A      0.493651    83A      0.513742    84A      0.520557  
      85A      0.526613    86A      0.527334    87A      0.534159  
      88A      0.537164    89A      0.550660    90A      0.559891  
      91A      0.576884    92A      0.600864    93A      0.603612  
      94A      0.605654    95A      0.615749    96A      0.624081  
      97A      0.646357    98A      0.675869    99A      0.690408  
     100A      0.703215   101A      0.731727   102A      0.739575  
     103A      0.741215   104A      0.754991   105A      0.762354  
     106A      0.774037   107A      0.795943   108A      0.804239  
     109A      0.816531   110A      0.828584   111A      0.834097  
     112A      0.835194   113A      0.845626   114A      0.859281  
     115A      0.865001   116A      0.866391   117A      0.883036  
     118A      0.900627   119A      0.910117   120A      0.913958  
     121A      0.917600   122A      0.929193   123A      0.944323  
     124A      0.958834   125A      0.963023   126A      0.966354  
     127A      0.974056   128A      0.983133   129A      0.996264  
     130A      0.999935   131A      1.017198   132A      1.025296  
     133A      1.033017   134A      1.039195   135A      1.053370  
     136A      1.068301   137A      1.077165   138A      1.088044  
     139A      1.099385   140A      1.107090   141A      1.114718  
     142A      1.122505   143A      1.124716   144A      1.141413  
     145A      1.148123   146A      1.157262   147A      1.162245  
     148A      1.177971   149A      1.199763   150A      1.215841  
     151A      1.219685   152A      1.228105   153A      1.239486  
     154A      1.241706   155A      1.260415   156A      1.264553  
     157A      1.273862   158A      1.278443   159A      1.298597  
     160A      1.312847   161A      1.326606   162A      1.340424  
     163A      1.352268   164A      1.384484   165A      1.398318  
     166A      1.420229   167A      1.422810   168A      1.435858  
     169A      1.456052   170A      1.459362   171A      1.472542  
     172A      1.485995   173A      1.502584   174A      1.510330  
     175A      1.520554   176A      1.545585   177A      1.556559  
     178A      1.564619   179A      1.578845   180A      1.586783  
     181A      1.597333   182A      1.606172   183A      1.634651  
     184A      1.638048   185A      1.666729   186A      1.672053  
     187A      1.689364   188A      1.693287   189A      1.704005  
     190A      1.706733   191A      1.718771   192A      1.734546  
     193A      1.739273   194A      1.758914   195A      1.773517  
     196A      1.785298   197A      1.789471   198A      1.812345  
     199A      1.817009   200A      1.846611   201A      1.855807  
     202A      1.873601   203A      1.885154   204A      1.904133  
     205A      1.916031   206A      1.934740   207A      1.944539  
     208A      1.961036   209A      1.969306   210A      1.996548  
     211A      2.006107   212A      2.022320   213A      2.043653  
     214A      2.049778   215A      2.060684   216A      2.099939  
     217A      2.116463   218A      2.126450   219A      2.149476  
     220A      2.183620   221A      2.209833   222A      2.246370  
     223A      2.270480   224A      2.293330   225A      2.303809  
     226A      2.310908   227A      2.329497   228A      2.338578  
     229A      2.363782   230A      2.374103   231A      2.433740  
     232A      2.463795   233A      2.477941   234A      2.498991  
     235A      2.511145   236A      2.530683   237A      2.571240  
     238A      2.587139   239A      2.605860   240A      2.628409  
     241A      2.660848   242A      2.706889   243A      2.746593  
     244A      2.766337   245A      2.780979   246A      2.831862  
     247A      2.880238   248A      2.906257   249A      2.929730  
     250A      2.951691   251A      2.954831   252A      3.003053  
     253A      3.009886   254A      3.023897   255A      3.030354  
     256A      3.051916   257A      3.108729   258A      3.121737  
     259A      3.144928   260A      3.190102   261A      3.260968  
     262A      3.305620   263A      3.349389   264A      3.400320  
     265A      3.419308   266A      3.441889   267A      3.493951  
     268A      3.509844   269A      3.555847   270A      3.599082  
     271A      3.611570   272A      3.624587   273A      3.667039  
     274A      3.679524   275A      3.692853   276A      3.712106  
     277A      3.733298   278A      3.748300   279A      3.763096  
     280A      3.778443   281A      3.781649   282A      3.824487  
     283A      3.837977   284A      3.853209   285A      3.887548  
     286A      3.899399   287A      3.913799   288A      3.956341  
     289A      3.962404   290A      3.982851   291A      4.002558  
     292A      4.026605   293A      4.036810   294A      4.059882  
     295A      4.095790   296A      4.100644   297A      4.106606  
     298A      4.147389   299A      4.157841   300A      4.163190  
     301A      4.177298   302A      4.196044   303A      4.218217  
     304A      4.259770   305A      4.280274   306A      4.292981  
     307A      4.314583   308A      4.332373   309A      4.355535  
     310A      4.368956   311A      4.400438   312A      4.444958  
     313A      4.462142   314A      4.483233   315A      4.516519  
     316A      4.538383   317A      4.551228   318A      4.579239  
     319A      4.592262   320A      4.611342   321A      4.629439  
     322A      4.652139   323A      4.673716   324A      4.708231  
     325A      4.719599   326A      4.725603   327A      4.758184  
     328A      4.805126   329A      4.819811   330A      4.823364  
     331A      4.873620   332A      4.899192   333A      4.911807  
     334A      4.940555   335A      4.952158   336A      4.963381  
     337A      4.993924   338A      5.027928   339A      5.034175  
     340A      5.096235   341A      5.118494   342A      5.129742  
     343A      5.148775   344A      5.156450   345A      5.168793  
     346A      5.180360   347A      5.213021   348A      5.236855  
     349A      5.250058   350A      5.304843   351A      5.334648  
     352A      5.343796   353A      5.372270   354A      5.385925  
     355A      5.423221   356A      5.459669   357A      5.477830  
     358A      5.480370   359A      5.516699   360A      5.545237  
     361A      5.577242   362A      5.598618   363A      5.623701  
     364A      5.633931   365A      5.677173   366A      5.722481  
     367A      5.806495   368A      5.808362   369A      5.902679  
     370A      5.950462   371A      5.991422   372A      6.080075  
     373A      6.095115   374A      6.135747   375A      6.173625  
     376A      6.233926   377A      6.263288   378A      6.353541  
     379A      6.391459   380A      6.489634   381A      6.639537  
     382A      6.676405   383A      6.739739   384A      6.755912  
     385A      6.910363   386A      6.956329   387A      6.966652  
     388A      6.993116   389A      7.047043   390A      7.122333  
     391A      7.296808   392A      7.319791   393A      7.344839  
     394A      7.356775   395A      7.416943   396A      7.463490  
     397A      7.501419   398A      7.572813   399A      7.585944  
     400A      7.645891   401A      7.655757   402A      7.809693  
     403A      7.837740   404A      7.906627   405A      7.951633  
     406A      8.215324   407A      8.368780   408A      8.561473  
     409A      8.746100   410A     15.939663   411A     17.327446  
     412A     17.438741   413A     17.953949   414A     18.977401  

    Final Occupation by Irrep:
              A 
    DOCC [    21 ]

  @DF-RHF Final Energy:  -268.02914642999639

   => Energetics <=

    Nuclear Repulsion Energy =            186.0405479953676036
    One-Electron Energy =                -734.6179878897596609
    Two-Electron Energy =                 280.5482934643956128
    Total Energy =                       -268.0291464299963877

Computation Completed

*** tstop() called on node142.bme.utexas.edu at Mon Nov  2 17:50:10 2020
Module time:
	user time   =     104.13 seconds =       1.74 minutes
	system time =       4.51 seconds =       0.08 minutes
	total time  =         18 seconds =       0.30 minutes
Total time:
	user time   =     104.13 seconds =       1.74 minutes
	system time =       4.51 seconds =       0.08 minutes
	total time  =         18 seconds =       0.30 minutes
   => Loading Basis Set <=

    Name: (AUG-CC-PVTZ AUX)
    Role: RIFIT
    Keyword: DF_BASIS_MP2
    atoms 1-2  entry O          line   264 file /home/xy3866/psi4conda/share/psi4/basis/aug-cc-pvtz-ri.gbs 
    atoms 3-5  entry C          line   148 file /home/xy3866/psi4conda/share/psi4/basis/aug-cc-pvtz-ri.gbs 
    atoms 6-13 entry H          line    30 file /home/xy3866/psi4conda/share/psi4/basis/aug-cc-pvtz-ri.gbs 


*** tstart() called on node142.bme.utexas.edu
*** at Mon Nov  2 17:50:11 2020


  //>>>>>>>>>>>>>>>>>>>>>>>>>>>>>>>>>>>//
  //               DFMP2               //
  //<<<<<<<<<<<<<<<<<<<<<<<<<<<<<<<<<<<//

	 --------------------------------------------------------
	                          DF-MP2                         
	      2nd-Order Density-Fitted Moller-Plesset Theory     
	              RMP2 Wavefunction,   8 Threads             
	                                                         
	        Rob Parrish, Justin Turney, Andy Simmonett,      
	           Ed Hohenstein, and C. David Sherrill          
	 --------------------------------------------------------

   => Auxiliary Basis Set <=

  Basis Set: (AUG-CC-PVTZ AUX)
    Blend: AUG-CC-PVTZ-RI
    Number of shells: 252
    Number of basis function: 898
    Number of Cartesian functions: 1120
    Spherical Harmonics?: true
    Max angular momentum: 4

	 --------------------------------------------------------
	                 NBF =   414, NAUX =   898
	 --------------------------------------------------------
	   CLASS    FOCC     OCC    AOCC    AVIR     VIR    FVIR
	   PAIRS       0      21      21     393     393       0
	 --------------------------------------------------------

  DFHelper Memory: AOs need 1.148 GiB; user supplied 22.352 GiB. Using in-core AOs.


         ------------------------------------------------------------
                                     CPHF                           
                                  Rob Parrish                       
         ------------------------------------------------------------

  ==> Geometry <==

    Molecular point group: c1
    Full point group: C1

    Geometry (in Angstrom), charge = 0, multiplicity = 1:

       Center              X                  Y                   Z               Mass       
    ------------   -----------------  -----------------  -----------------  -----------------
         O           -2.350314680929    -0.378849642094     0.003983492355    15.994914619570
         O            2.468339319071    -0.238365642094    -0.083383507645    15.994914619570
         C            0.016946319071    -0.302233642094    -0.022825507645    12.000000000000
         C           -1.403052080929     0.403341357906     0.022410792355    12.000000000000
         C            1.280750319071     0.544920357906     0.040023492355    12.000000000000
         H           -0.001923680929    -1.007269642094     0.817997492355     1.007825032230
         H            0.027776319071    -0.894221642094    -0.942841507645     1.007825032230
         H           -1.263627680929     1.146115357906     0.937680492355     1.007825032230
         H           -1.281090680929     1.212962357906    -0.836957507645     1.007825032230
         H            1.296628319071     1.139038357906     0.966540492355     1.007825032230
         H            1.313248319071     1.245976357906    -0.798703507645     1.007825032230
         H           -3.165204680929     0.150050357906     0.006157492355     1.007825032230
         H            2.455506319071    -0.889142642094     0.638647492355     1.007825032230

  Nuclear repulsion =  186.040547995367604
  Reference energy  = -268.029146429996388

  ==> Basis Set <==

  Basis Set: AUG-CC-PVTZ
    Blend: AUG-CC-PVTZ
    Number of shells: 142
    Number of basis function: 414
    Number of Cartesian functions: 475
    Spherical Harmonics?: true
    Max angular momentum: 3

  ==> CGRSolver (by Rob Parrish) <==

   Number of roots    =         1
   Preconditioning    =    JACOBI
   Convergence cutoff =     1E-06
   Maximum iterations =       100

  ==> CPHFRHamiltonian (by Rob Parrish) <== 

  ==> MemDFJK: Density-Fitted J/K Matrices <==

    J tasked:                   Yes
    K tasked:                   Yes
    wK tasked:                   No
    OpenMP threads:               8
    Memory [MiB]:             22888
    Algorithm:                 Core
    Schwarz Cutoff:           1E-12
    Mask sparsity (%):       3.2475
    Fitting Condition:        1E-10

   => Auxiliary Basis Set <=

  Basis Set: (AUG-CC-PVTZ AUX)
    Blend: AUG-CC-PVTZ-JKFIT
    Number of shells: 262
    Number of basis function: 888
    Number of Cartesian functions: 1095
    Spherical Harmonics?: true
    Max angular momentum: 4

  ==> CPHF Iterations <==

  => Iterations <=

             Iter  Converged  Remaining    Residual
  CGR           1          0          1   7.248E-02
  CGR           2          0          1   1.720E-02
  CGR           3          0          1   7.070E-03
  CGR           4          0          1   1.636E-03
  CGR           5          0          1   3.696E-04
  CGR           6          0          1   1.231E-04
  CGR           7          0          1   3.377E-05
  CGR           8          0          1   1.025E-05
  CGR           9          0          1   3.448E-06
  CGR          10          0          1   1.042E-06
  CGR          11          1          0   2.773E-07

    CGRSolver converged.

	-----------------------------------------------------------
	 ==================> DF-MP2 Energies <==================== 
	-----------------------------------------------------------
	 Reference Energy          =    -268.0291464299963877 [Eh]
	 Singles Energy            =      -0.0000000000000000 [Eh]
	 Same-Spin Energy          =      -0.2589663336152298 [Eh]
	 Opposite-Spin Energy      =      -0.8571283050805061 [Eh]
	 Correlation Energy        =      -1.1160946386957358 [Eh]
	 Total Energy              =    -269.1452410686921439 [Eh]
	-----------------------------------------------------------
	 ================> DF-SCS-MP2 Energies <================== 
	-----------------------------------------------------------
	 SCS Same-Spin Scale       =       0.3333333333333333 [-]
	 SCS Opposite-Spin Scale   =       1.2000000000000000 [-]
	 SCS Same-Spin Energy      =      -0.0863221112050766 [Eh]
	 SCS Opposite-Spin Energy  =      -1.0285539660966072 [Eh]
	 SCS Correlation Energy    =      -1.1148760773016839 [Eh]
	 SCS Total Energy          =    -269.1440225072980752 [Eh]
	-----------------------------------------------------------



Properties will be evaluated at   0.000000,  -0.000000,   0.000000 [a0]

Properties computed using the MP2 density matrix

  Nuclear Dipole Moment: [e a0]
     X:    -0.5794      Y:     1.9690      Z:     0.7388

  Electronic Dipole Moment: [e a0]
     X:    -0.2880      Y:    -1.6392      Z:    -0.3097

  Dipole Moment: [e a0]
     X:    -0.8675      Y:     0.3298      Z:     0.4291     Total:     1.0225

  Dipole Moment: [D]
     X:    -2.2049      Y:     0.8384      Z:     1.0906     Total:     2.5988


*** tstop() called on node142.bme.utexas.edu at Mon Nov  2 17:51:00 2020
Module time:
	user time   =     293.12 seconds =       4.89 minutes
	system time =       7.54 seconds =       0.13 minutes
	total time  =         49 seconds =       0.82 minutes
Total time:
	user time   =     398.27 seconds =       6.64 minutes
	system time =      12.12 seconds =       0.20 minutes
	total time  =         68 seconds =       1.13 minutes

    Psi4 stopped on: Monday, 02 November 2020 05:51PM
    Psi4 wall time for execution: 0:01:07.90

*** Psi4 exiting successfully. Buy a developer a beer!
