
    -----------------------------------------------------------------------
          Psi4: An Open-Source Ab Initio Electronic Structure Package
                               Psi4 1.4a3.dev225 

                         Git: Rev {master} 7105e37 


    D. G. A. Smith, L. A. Burns, A. C. Simmonett, R. M. Parrish,
    M. C. Schieber, R. Galvelis, P. Kraus, H. Kruse, R. Di Remigio,
    A. Alenaizan, A. M. James, S. Lehtola, J. P. Misiewicz, M. Scheurer,
    R. A. Shaw, J. B. Schriber, Y. Xie, Z. L. Glick, D. A. Sirianni,
    J. S. O'Brien, J. M. Waldrop, A. Kumar, E. G. Hohenstein,
    B. P. Pritchard, B. R. Brooks, H. F. Schaefer III, A. Yu. Sokolov,
    K. Patkowski, A. E. DePrince III, U. Bozkaya, R. A. King,
    F. A. Evangelista, J. M. Turney, T. D. Crawford, C. D. Sherrill,
    J. Chem. Phys. 152(18) 184108 (2020). https://doi.org/10.1063/5.0006002

                            Additional Code Authors
    E. T. Seidl, C. L. Janssen, E. F. Valeev, M. L. Leininger,
    J. F. Gonthier, R. M. Richard, H. R. McAlexander, M. Saitow, X. Wang,
    P. Verma, and M. H. Lechner

             Previous Authors, Complete List of Code Contributors,
                       and Citations for Specific Modules
    https://github.com/psi4/psi4/blob/master/codemeta.json
    https://github.com/psi4/psi4/graphs/contributors
    http://psicode.org/psi4manual/master/introduction.html#citing-psifour

    -----------------------------------------------------------------------


    Psi4 started on: Sunday, 07 March 2021 02:11AM

    Process ID: 167386
    Host:       c418-114.stampede2.tacc.utexas.edu
    PSIDATADIR: /home1/07844/xy3866/miniconda3/envs/p4env/share/psi4
    Memory:     500.0 MiB
    Threads:    32
    
  ==> Input File <==

--------------------------------------------------------------------------
#psi4
#
memory 32 gb

molecule  {
0 1
  O        0.8655410    -0.2383350    -0.1978900
  C       -1.3532420     0.4851090     0.1659470
  C        0.0923410     0.8600100     0.3004220
  C       -4.0814115    -0.2054401    -0.0929192
  C       -1.8292680    -0.6845410     0.7713590
  C       -2.2449120     1.2876570    -0.5496990
  C       -3.1721270    -1.0365930     0.6617200
  C       -3.5922330     0.9350480    -0.6483300
  C        2.2320470    -0.1282220    -0.1046120
  C       -5.5355430    -0.5984480    -0.1257210
  C        2.9140800     0.9938170     0.3783620
  C        2.9472190    -1.2508620    -0.5439590
  C        4.3132210     0.9773220     0.4183570
  C        4.3370840    -1.2508910    -0.4991240
  C        5.0300920    -0.1353830    -0.0155080
  H        0.3103430     1.7730630    -0.2708990
  H        0.3551050     1.0439550     1.3523320
  H       -1.1374380    -1.3254410     1.3139440
  H       -1.8855300     2.1916430    -1.0389860
  H       -3.5267120    -1.9532640     1.1308580
  H       -4.2733370     1.5694920    -1.2133600
  H       -6.0038750    -0.1617940    -1.0122750
  H       -5.6673980    -1.6833350    -0.1714030
  H       -6.0811880    -0.2353180     0.7521400
  H        2.3826970     1.8764090     0.7176150
  H        2.3879470    -2.1054110    -0.9150460
  H        4.8399070     1.8514100     0.7945710
  H        4.8825510    -2.1268580    -0.8422600
  H        6.1161710    -0.1361850     0.0199920
units angstrom
no_reorient  #important for SAPT in psi4, default
symmetry c1  #important for SAPT in psi4, default
}

set PROPERTIES_ORIGIN ["COM"]
properties('MP2/aug-cc-pvtz', properties = ['dipole'])
--------------------------------------------------------------------------

  Memory set to  29.802 GiB by Python driver.
    SCF Algorithm Type (re)set to DF.

*** tstart() called on c418-114.stampede2.tacc.utexas.edu
*** at Sun Mar  7 02:11:24 2021

   => Loading Basis Set <=

    Name: AUG-CC-PVTZ
    Role: ORBITAL
    Keyword: BASIS
    atoms 1     entry O          line   331 file /home1/07844/xy3866/miniconda3/envs/p4env/share/psi4/basis/aug-cc-pvtz.gbs 
    atoms 2-15  entry C          line   239 file /home1/07844/xy3866/miniconda3/envs/p4env/share/psi4/basis/aug-cc-pvtz.gbs 
    atoms 16-29 entry H          line    40 file /home1/07844/xy3866/miniconda3/envs/p4env/share/psi4/basis/aug-cc-pvtz.gbs 


         ---------------------------------------------------------
                                   SCF
               by Justin Turney, Rob Parrish, Andy Simmonett
                          and Daniel G. A. Smith
                              RHF Reference
                       32 Threads,  30517 MiB Core
         ---------------------------------------------------------

  ==> Geometry <==

    Molecular point group: c1
    Full point group: C1

    Geometry (in Angstrom), charge = 0, multiplicity = 1:

       Center              X                  Y                   Z               Mass       
    ------------   -----------------  -----------------  -----------------  -----------------
         O            0.829325063457    -0.237091911192    -0.192096878357    15.994914619570
         C           -1.389457936543     0.486352088808     0.171740121643    12.000000000000
         C            0.056125063457     0.861253088808     0.306215121643    12.000000000000
         C           -4.117627436543    -0.204197011192    -0.087126078357    12.000000000000
         C           -1.865483936543    -0.683297911192     0.777152121643    12.000000000000
         C           -2.281127936543     1.288900088808    -0.543905878357    12.000000000000
         C           -3.208342936543    -1.035349911192     0.667513121643    12.000000000000
         C           -3.628448936543     0.936291088808    -0.642536878357    12.000000000000
         C            2.195831063457    -0.126978911192    -0.098818878357    12.000000000000
         C           -5.571758936543    -0.597204911192    -0.119927878357    12.000000000000
         C            2.877864063457     0.995060088808     0.384155121643    12.000000000000
         C            2.911003063457    -1.249618911192    -0.538165878357    12.000000000000
         C            4.277005063457     0.978565088808     0.424150121643    12.000000000000
         C            4.300868063457    -1.249647911192    -0.493330878357    12.000000000000
         C            4.993876063457    -0.134139911192    -0.009714878357    12.000000000000
         H            0.274127063457     1.774306088808    -0.265105878357     1.007825032230
         H            0.318889063457     1.045198088808     1.358125121643     1.007825032230
         H           -1.173653936543    -1.324197911192     1.319737121643     1.007825032230
         H           -1.921745936543     2.192886088808    -1.033192878357     1.007825032230
         H           -3.562927936543    -1.952020911192     1.136651121643     1.007825032230
         H           -4.309552936543     1.570735088808    -1.207566878357     1.007825032230
         H           -6.040090936543    -0.160550911192    -1.006481878357     1.007825032230
         H           -5.703613936543    -1.682091911192    -0.165609878357     1.007825032230
         H           -6.117403936543    -0.234074911192     0.757933121643     1.007825032230
         H            2.346481063457     1.877652088808     0.723408121643     1.007825032230
         H            2.351731063457    -2.104167911192    -0.909252878357     1.007825032230
         H            4.803691063457     1.852653088808     0.800364121643     1.007825032230
         H            4.846335063457    -2.125614911192    -0.836466878357     1.007825032230
         H            6.079955063457    -0.134941911192     0.025785121643     1.007825032230

  Running in c1 symmetry.

  Rotational constants: A =      0.08047  B =      0.00739  C =      0.00703 [cm^-1]
  Rotational constants: A =   2412.28310  B =    221.58463  C =    210.68327 [MHz]
  Nuclear repulsion =  870.712948218602264

  Charge       = 0
  Multiplicity = 1
  Electrons    = 106
  Nalpha       = 53
  Nbeta        = 53

  ==> Algorithm <==

  SCF Algorithm Type is DF.
  DIIS enabled.
  MOM disabled.
  Fractional occupation disabled.
  Guess Type is SAD.
  Energy threshold   = 1.00e-10
  Density threshold  = 1.00e-10
  Integral threshold = 1.00e-12

  ==> Primary Basis <==

  Basis Set: AUG-CC-PVTZ
    Blend: AUG-CC-PVTZ
    Number of shells: 336
    Number of basis functions: 1012
    Number of Cartesian functions: 1175
    Spherical Harmonics?: true
    Max angular momentum: 3

   => Loading Basis Set <=

    Name: (AUG-CC-PVTZ AUX)
    Role: JKFIT
    Keyword: DF_BASIS_SCF
    atoms 1     entry O          line   286 file /home1/07844/xy3866/miniconda3/envs/p4env/share/psi4/basis/aug-cc-pvtz-jkfit.gbs 
    atoms 2-15  entry C          line   162 file /home1/07844/xy3866/miniconda3/envs/p4env/share/psi4/basis/aug-cc-pvtz-jkfit.gbs 
    atoms 16-29 entry H          line    70 file /home1/07844/xy3866/miniconda3/envs/p4env/share/psi4/basis/aug-cc-pvtz-jkfit.gbs 

  ==> Integral Setup <==

  DFHelper Memory: AOs need 12.881 GiB; user supplied 22.352 GiB. Using in-core AOs.

  ==> MemDFJK: Density-Fitted J/K Matrices <==

    J tasked:                   Yes
    K tasked:                   Yes
    wK tasked:                   No
    OpenMP threads:              32
    Memory [MiB]:             22888
    Algorithm:                 Core
    Schwarz Cutoff:           1E-12
    Mask sparsity (%):      26.2988
    Fitting Condition:        1E-10

   => Auxiliary Basis Set <=

  Basis Set: (AUG-CC-PVTZ AUX)
    Blend: AUG-CC-PVTZ-JKFIT
    Number of shells: 646
    Number of basis functions: 2204
    Number of Cartesian functions: 2735
    Spherical Harmonics?: true
    Max angular momentum: 4

  Minimum eigenvalue in the overlap matrix is 4.9678431447E-07.
  Reciprocal condition number of the overlap matrix is 2.4689803735E-08.
    Using symmetric orthogonalization.

  ==> Pre-Iterations <==

  SCF Guess: Superposition of Atomic Densities via on-the-fly atomic UHF (no occupation information).

   -------------------------
    Irrep   Nso     Nmo    
   -------------------------
     A       1012    1012 
   -------------------------
    Total    1012    1012
   -------------------------

  ==> Iterations <==

                           Total Energy        Delta E     RMS |[F,P]|

   @DF-RHF iter SAD:  -612.68452609112205   -6.12685e+02   0.00000e+00 
   @DF-RHF iter   1:  -612.94173280362111   -2.57207e-01   8.19024e-04 DIIS
   @DF-RHF iter   2:  -613.29190514681204   -3.50172e-01   3.72659e-04 DIIS
   @DF-RHF iter   3:  -613.36351111274689   -7.16060e-02   7.85344e-05 DIIS
   @DF-RHF iter   4:  -613.36825383926964   -4.74273e-03   2.80885e-05 DIIS
   @DF-RHF iter   5:  -613.36872872410856   -4.74885e-04   6.95341e-06 DIIS
   @DF-RHF iter   6:  -613.36876648257487   -3.77585e-05   2.36947e-06 DIIS
   @DF-RHF iter   7:  -613.36877202786832   -5.54529e-06   7.37348e-07 DIIS
   @DF-RHF iter   8:  -613.36877306734073   -1.03947e-06   3.20482e-07 DIIS
   @DF-RHF iter   9:  -613.36877333099903   -2.63658e-07   1.63027e-07 DIIS
   @DF-RHF iter  10:  -613.36877339597277   -6.49737e-08   6.49456e-08 DIIS
   @DF-RHF iter  11:  -613.36877341106526   -1.50925e-08   2.51281e-08 DIIS
   @DF-RHF iter  12:  -613.36877341290767   -1.84241e-09   1.06093e-08 DIIS
   @DF-RHF iter  13:  -613.36877341311708   -2.09411e-10   2.54770e-09 DIIS
   @DF-RHF iter  14:  -613.36877341312629   -9.20863e-12   1.09714e-09 DIIS
   @DF-RHF iter  15:  -613.36877341312652   -2.27374e-13   3.32576e-10 DIIS
   @DF-RHF iter  16:  -613.36877341312970   -3.18323e-12   1.31192e-10 DIIS
   @DF-RHF iter  17:  -613.36877341312879    9.09495e-13   7.21890e-11 DIIS
  Energy and wave function converged.


  ==> Post-Iterations <==

    Orbital Energies [Eh]
    ---------------------

    Doubly Occupied:                                                      

       1A    -20.584022     2A    -11.301116     3A    -11.293316  
       4A    -11.243493     5A    -11.241012     6A    -11.239538  
       7A    -11.239443     8A    -11.237748     9A    -11.236582  
      10A    -11.234301    11A    -11.233014    12A    -11.227900  
      13A    -11.227737    14A    -11.227310    15A    -11.225972  
      16A     -1.404999    17A     -1.159002    18A     -1.143820  
      19A     -1.067520    20A     -1.017806    21A     -1.012830  
      22A     -1.008677    23A     -0.964186    24A     -0.899938  
      25A     -0.834668    26A     -0.829297    27A     -0.809818  
      28A     -0.781486    29A     -0.721201    30A     -0.684162  
      31A     -0.670465    32A     -0.663745    33A     -0.643849  
      34A     -0.630947    35A     -0.620664    36A     -0.609323  
      37A     -0.586940    38A     -0.583926    39A     -0.577032  
      40A     -0.563582    41A     -0.543521    42A     -0.532004  
      43A     -0.523876    44A     -0.513433    45A     -0.495159  
      46A     -0.486362    47A     -0.480447    48A     -0.478287  
      49A     -0.463979    50A     -0.340052    51A     -0.338069  
      52A     -0.321843    53A     -0.312415  

    Virtual:                                                              

      54A     -0.132913    55A      0.027266    56A      0.028311  
      57A      0.032227    58A      0.036505    59A      0.037537  
      60A      0.043428    61A      0.047850    62A      0.049167  
      63A      0.053388    64A      0.060497    65A      0.063435  
      66A      0.069633    67A      0.077680    68A      0.081573  
      69A      0.088579    70A      0.091915    71A      0.099201  
      72A      0.101537    73A      0.103710    74A      0.106149  
      75A      0.107970    76A      0.109741    77A      0.111327  
      78A      0.114008    79A      0.116808    80A      0.119543  
      81A      0.124185    82A      0.125962    83A      0.126968  
      84A      0.129269    85A      0.130112    86A      0.130469  
      87A      0.135666    88A      0.140484    89A      0.140847  
      90A      0.144056    91A      0.145690    92A      0.147977  
      93A      0.150510    94A      0.152865    95A      0.157645  
      96A      0.160040    97A      0.162504    98A      0.165918  
      99A      0.168478   100A      0.169390   101A      0.171043  
     102A      0.175948   103A      0.180271   104A      0.187829  
     105A      0.191563   106A      0.193450   107A      0.199058  
     108A      0.205555   109A      0.208821   110A      0.213124  
     111A      0.218390   112A      0.228046   113A      0.229526  
     114A      0.233220   115A      0.236347   116A      0.246886  
     117A      0.251516   118A      0.254957   119A      0.256779  
     120A      0.257729   121A      0.260656   122A      0.263166  
     123A      0.265346   124A      0.269528   125A      0.277082  
     126A      0.278063   127A      0.281546   128A      0.285696  
     129A      0.288121   130A      0.289559   131A      0.291435  
     132A      0.297271   133A      0.299513   134A      0.301870  
     135A      0.305772   136A      0.309750   137A      0.311836  
     138A      0.317537   139A      0.318626   140A      0.322280  
     141A      0.323547   142A      0.328284   143A      0.330940  
     144A      0.334920   145A      0.337683   146A      0.340233  
     147A      0.342504   148A      0.346153   149A      0.348715  
     150A      0.352924   151A      0.356879   152A      0.358185  
     153A      0.362639   154A      0.367041   155A      0.369466  
     156A      0.374021   157A      0.378300   158A      0.380360  
     159A      0.387014   160A      0.390462   161A      0.391478  
     162A      0.392405   163A      0.397978   164A      0.401792  
     165A      0.406414   166A      0.412494   167A      0.414662  
     168A      0.416595   169A      0.421960   170A      0.424009  
     171A      0.428380   172A      0.432931   173A      0.436396  
     174A      0.440809   175A      0.442886   176A      0.446070  
     177A      0.448816   178A      0.451879   179A      0.456145  
     180A      0.457440   181A      0.460300   182A      0.466003  
     183A      0.467634   184A      0.470519   185A      0.473090  
     186A      0.475127   187A      0.477580   188A      0.478928  
     189A      0.481186   190A      0.485127   191A      0.486715  
     192A      0.489134   193A      0.497033   194A      0.498394  
     195A      0.500900   196A      0.503567   197A      0.504452  
     198A      0.509733   199A      0.510477   200A      0.515245  
     201A      0.517501   202A      0.518893   203A      0.522604  
     204A      0.523400   205A      0.526079   206A      0.528000  
     207A      0.532477   208A      0.537430   209A      0.540071  
     210A      0.541573   211A      0.541654   212A      0.546063  
     213A      0.546745   214A      0.550372   215A      0.556034  
     216A      0.556647   217A      0.561249   218A      0.562261  
     219A      0.568705   220A      0.571670   221A      0.576217  
     222A      0.577449   223A      0.583412   224A      0.587061  
     225A      0.591199   226A      0.597900   227A      0.600394  
     228A      0.606055   229A      0.608065   230A      0.615848  
     231A      0.619821   232A      0.624023   233A      0.627989  
     234A      0.629917   235A      0.632986   236A      0.637656  
     237A      0.641371   238A      0.648025   239A      0.653675  
     240A      0.658594   241A      0.664728   242A      0.667387  
     243A      0.672898   244A      0.681868   245A      0.685864  
     246A      0.694089   247A      0.698562   248A      0.703112  
     249A      0.705383   250A      0.709584   251A      0.711974  
     252A      0.713182   253A      0.719409   254A      0.723048  
     255A      0.725589   256A      0.730239   257A      0.738765  
     258A      0.741718   259A      0.748930   260A      0.750725  
     261A      0.758116   262A      0.761912   263A      0.763673  
     264A      0.766795   265A      0.778639   266A      0.782002  
     267A      0.790853   268A      0.795341   269A      0.801752  
     270A      0.803387   271A      0.807155   272A      0.814581  
     273A      0.820634   274A      0.822604   275A      0.832528  
     276A      0.834798   277A      0.836252   278A      0.838599  
     279A      0.844571   280A      0.848515   281A      0.858660  
     282A      0.861084   283A      0.866484   284A      0.868088  
     285A      0.874836   286A      0.878705   287A      0.880904  
     288A      0.883648   289A      0.890218   290A      0.896918  
     291A      0.898953   292A      0.900826   293A      0.903484  
     294A      0.907822   295A      0.911616   296A      0.915012  
     297A      0.920330   298A      0.920768   299A      0.924080  
     300A      0.924375   301A      0.927302   302A      0.931064  
     303A      0.934768   304A      0.938992   305A      0.946417  
     306A      0.950779   307A      0.953048   308A      0.954686  
     309A      0.956969   310A      0.962043   311A      0.965254  
     312A      0.969382   313A      0.975521   314A      0.979565  
     315A      0.982434   316A      0.986469   317A      0.990975  
     318A      0.993683   319A      0.996601   320A      1.002665  
     321A      1.009483   322A      1.014341   323A      1.016803  
     324A      1.017771   325A      1.019923   326A      1.023401  
     327A      1.025078   328A      1.030132   329A      1.038468  
     330A      1.041001   331A      1.044782   332A      1.052500  
     333A      1.054581   334A      1.058614   335A      1.060123  
     336A      1.065023   337A      1.068155   338A      1.070333  
     339A      1.073262   340A      1.075383   341A      1.080121  
     342A      1.082481   343A      1.083708   344A      1.088593  
     345A      1.091619   346A      1.095712   347A      1.099282  
     348A      1.103226   349A      1.105663   350A      1.109078  
     351A      1.113849   352A      1.116944   353A      1.118512  
     354A      1.121747   355A      1.126221   356A      1.129639  
     357A      1.136552   358A      1.138386   359A      1.145219  
     360A      1.148539   361A      1.151415   362A      1.155078  
     363A      1.162994   364A      1.168062   365A      1.169354  
     366A      1.175273   367A      1.177171   368A      1.178195  
     369A      1.185867   370A      1.188565   371A      1.192168  
     372A      1.195570   373A      1.196578   374A      1.200938  
     375A      1.207493   376A      1.212569   377A      1.215429  
     378A      1.217624   379A      1.222218   380A      1.225158  
     381A      1.230094   382A      1.232109   383A      1.234062  
     384A      1.238142   385A      1.241556   386A      1.248924  
     387A      1.253411   388A      1.256967   389A      1.263521  
     390A      1.265193   391A      1.267512   392A      1.268822  
     393A      1.274652   394A      1.282628   395A      1.288706  
     396A      1.296894   397A      1.297419   398A      1.302080  
     399A      1.303394   400A      1.312145   401A      1.318264  
     402A      1.321440   403A      1.329684   404A      1.335455  
     405A      1.340902   406A      1.343659   407A      1.347453  
     408A      1.359443   409A      1.361985   410A      1.371798  
     411A      1.372153   412A      1.375264   413A      1.382843  
     414A      1.388381   415A      1.394449   416A      1.398592  
     417A      1.402111   418A      1.404927   419A      1.412613  
     420A      1.418251   421A      1.423835   422A      1.427931  
     423A      1.438069   424A      1.446657   425A      1.449657  
     426A      1.455591   427A      1.464165   428A      1.470102  
     429A      1.472904   430A      1.483884   431A      1.485567  
     432A      1.495699   433A      1.499606   434A      1.502770  
     435A      1.506945   436A      1.512083   437A      1.516297  
     438A      1.518878   439A      1.525807   440A      1.541440  
     441A      1.546485   442A      1.553576   443A      1.557771  
     444A      1.560242   445A      1.569493   446A      1.574034  
     447A      1.579505   448A      1.586334   449A      1.599093  
     450A      1.609134   451A      1.612666   452A      1.618560  
     453A      1.627875   454A      1.632824   455A      1.634669  
     456A      1.638273   457A      1.651944   458A      1.657243  
     459A      1.663928   460A      1.676775   461A      1.677352  
     462A      1.685795   463A      1.691838   464A      1.693549  
     465A      1.700089   466A      1.710338   467A      1.712702  
     468A      1.715042   469A      1.718561   470A      1.725230  
     471A      1.727996   472A      1.731577   473A      1.738773  
     474A      1.741665   475A      1.748193   476A      1.756698  
     477A      1.759712   478A      1.770462   479A      1.772329  
     480A      1.781791   481A      1.783565   482A      1.798566  
     483A      1.803296   484A      1.806971   485A      1.807989  
     486A      1.814095   487A      1.826064   488A      1.833576  
     489A      1.837614   490A      1.845791   491A      1.850383  
     492A      1.851432   493A      1.856712   494A      1.862081  
     495A      1.870290   496A      1.871912   497A      1.877938  
     498A      1.886346   499A      1.887698   500A      1.888962  
     501A      1.899215   502A      1.902437   503A      1.904642  
     504A      1.912710   505A      1.920155   506A      1.927973  
     507A      1.932114   508A      1.935131   509A      1.943834  
     510A      1.949904   511A      1.955762   512A      1.958392  
     513A      1.966668   514A      1.970001   515A      1.990017  
     516A      1.991483   517A      1.995449   518A      1.999293  
     519A      2.006056   520A      2.011036   521A      2.017758  
     522A      2.023491   523A      2.031841   524A      2.032984  
     525A      2.039768   526A      2.041194   527A      2.050805  
     528A      2.056283   529A      2.061698   530A      2.069793  
     531A      2.077759   532A      2.083937   533A      2.092460  
     534A      2.094234   535A      2.101244   536A      2.104826  
     537A      2.107658   538A      2.116985   539A      2.121139  
     540A      2.123406   541A      2.134462   542A      2.136041  
     543A      2.138435   544A      2.143445   545A      2.157827  
     546A      2.160637   547A      2.163779   548A      2.170378  
     549A      2.171521   550A      2.179458   551A      2.187578  
     552A      2.190058   553A      2.194109   554A      2.200452  
     555A      2.212904   556A      2.217512   557A      2.224578  
     558A      2.233727   559A      2.237509   560A      2.251772  
     561A      2.254072   562A      2.259656   563A      2.272080  
     564A      2.279595   565A      2.291916   566A      2.296399  
     567A      2.301613   568A      2.311397   569A      2.318967  
     570A      2.332113   571A      2.344869   572A      2.347490  
     573A      2.355458   574A      2.358074   575A      2.362650  
     576A      2.369624   577A      2.382417   578A      2.386540  
     579A      2.392665   580A      2.400502   581A      2.412092  
     582A      2.415304   583A      2.420687   584A      2.426841  
     585A      2.433794   586A      2.436056   587A      2.446888  
     588A      2.456441   589A      2.469936   590A      2.471653  
     591A      2.485271   592A      2.500777   593A      2.514794  
     594A      2.524770   595A      2.534196   596A      2.538809  
     597A      2.555478   598A      2.585798   599A      2.594208  
     600A      2.600180   601A      2.620604   602A      2.634303  
     603A      2.642449   604A      2.648679   605A      2.655832  
     606A      2.666197   607A      2.673815   608A      2.681033  
     609A      2.694064   610A      2.712144   611A      2.727102  
     612A      2.735879   613A      2.745935   614A      2.769248  
     615A      2.779769   616A      2.802158   617A      2.804920  
     618A      2.817517   619A      2.833235   620A      2.844102  
     621A      2.852560   622A      2.857008   623A      2.872465  
     624A      2.887369   625A      2.907402   626A      2.940119  
     627A      2.955394   628A      2.957697   629A      2.979544  
     630A      3.009314   631A      3.012631   632A      3.036940  
     633A      3.061329   634A      3.071008   635A      3.105424  
     636A      3.116110   637A      3.116647   638A      3.127898  
     639A      3.138905   640A      3.175634   641A      3.195868  
     642A      3.218140   643A      3.221914   644A      3.226496  
     645A      3.233071   646A      3.248010   647A      3.268821  
     648A      3.279200   649A      3.285524   650A      3.295606  
     651A      3.301196   652A      3.310095   653A      3.323200  
     654A      3.330770   655A      3.348449   656A      3.350680  
     657A      3.360898   658A      3.371977   659A      3.376450  
     660A      3.385923   661A      3.386740   662A      3.408634  
     663A      3.415183   664A      3.422730   665A      3.430514  
     666A      3.436852   667A      3.447781   668A      3.456890  
     669A      3.463238   670A      3.474254   671A      3.481561  
     672A      3.487298   673A      3.499403   674A      3.500248  
     675A      3.509252   676A      3.513911   677A      3.530835  
     678A      3.535617   679A      3.544925   680A      3.552446  
     681A      3.554283   682A      3.559214   683A      3.566110  
     684A      3.571743   685A      3.574761   686A      3.578802  
     687A      3.585283   688A      3.593941   689A      3.597868  
     690A      3.605585   691A      3.612753   692A      3.615694  
     693A      3.623363   694A      3.630718   695A      3.633182  
     696A      3.644621   697A      3.652826   698A      3.655127  
     699A      3.666626   700A      3.669202   701A      3.675204  
     702A      3.682991   703A      3.689830   704A      3.698342  
     705A      3.703971   706A      3.713095   707A      3.727444  
     708A      3.729679   709A      3.740397   710A      3.743166  
     711A      3.753734   712A      3.766063   713A      3.770836  
     714A      3.773577   715A      3.778063   716A      3.788230  
     717A      3.803517   718A      3.805291   719A      3.814101  
     720A      3.819038   721A      3.828545   722A      3.837096  
     723A      3.850473   724A      3.852750   725A      3.863071  
     726A      3.871091   727A      3.877070   728A      3.884060  
     729A      3.889919   730A      3.900804   731A      3.905161  
     732A      3.909700   733A      3.917823   734A      3.922604  
     735A      3.931549   736A      3.938787   737A      3.943423  
     738A      3.949892   739A      3.950846   740A      3.961024  
     741A      3.966937   742A      3.975690   743A      3.980476  
     744A      3.984731   745A      3.990194   746A      3.994193  
     747A      3.996570   748A      4.003143   749A      4.008179  
     750A      4.016468   751A      4.019973   752A      4.022867  
     753A      4.032148   754A      4.034825   755A      4.048595  
     756A      4.050668   757A      4.059001   758A      4.065568  
     759A      4.081045   760A      4.088695   761A      4.093779  
     762A      4.106822   763A      4.110940   764A      4.127247  
     765A      4.129021   766A      4.135373   767A      4.143317  
     768A      4.149059   769A      4.152651   770A      4.153480  
     771A      4.166855   772A      4.176759   773A      4.183579  
     774A      4.194632   775A      4.199442   776A      4.207571  
     777A      4.213087   778A      4.224367   779A      4.228957  
     780A      4.237503   781A      4.246852   782A      4.250129  
     783A      4.254726   784A      4.263057   785A      4.273974  
     786A      4.282308   787A      4.289328   788A      4.293169  
     789A      4.303017   790A      4.305100   791A      4.318175  
     792A      4.328928   793A      4.334641   794A      4.338880  
     795A      4.348183   796A      4.352186   797A      4.362867  
     798A      4.372545   799A      4.383933   800A      4.388840  
     801A      4.395597   802A      4.403479   803A      4.413525  
     804A      4.421216   805A      4.426303   806A      4.429258  
     807A      4.430971   808A      4.436679   809A      4.449606  
     810A      4.453801   811A      4.457829   812A      4.465913  
     813A      4.470232   814A      4.472666   815A      4.479407  
     816A      4.486315   817A      4.489817   818A      4.498621  
     819A      4.505715   820A      4.507279   821A      4.515920  
     822A      4.532840   823A      4.546278   824A      4.554193  
     825A      4.565127   826A      4.570714   827A      4.576802  
     828A      4.588049   829A      4.594425   830A      4.609504  
     831A      4.628785   832A      4.634428   833A      4.642183  
     834A      4.654382   835A      4.659917   836A      4.671717  
     837A      4.680000   838A      4.688015   839A      4.707258  
     840A      4.710800   841A      4.722977   842A      4.730431  
     843A      4.737712   844A      4.752375   845A      4.757309  
     846A      4.767581   847A      4.771631   848A      4.775681  
     849A      4.785410   850A      4.792952   851A      4.810303  
     852A      4.827193   853A      4.837214   854A      4.843048  
     855A      4.858036   856A      4.869579   857A      4.882843  
     858A      4.888708   859A      4.895167   860A      4.920340  
     861A      4.920729   862A      4.942475   863A      4.942674  
     864A      4.948691   865A      4.952205   866A      4.957997  
     867A      4.981326   868A      4.991737   869A      4.995460  
     870A      5.004143   871A      5.022748   872A      5.033547  
     873A      5.038597   874A      5.046143   875A      5.059286  
     876A      5.065332   877A      5.082691   878A      5.086737  
     879A      5.097454   880A      5.103311   881A      5.107656  
     882A      5.116528   883A      5.125976   884A      5.129471  
     885A      5.141118   886A      5.150931   887A      5.159689  
     888A      5.165811   889A      5.171618   890A      5.175779  
     891A      5.178088   892A      5.182179   893A      5.187536  
     894A      5.197988   895A      5.206060   896A      5.219901  
     897A      5.241238   898A      5.256087   899A      5.273408  
     900A      5.277051   901A      5.287908   902A      5.293952  
     903A      5.301017   904A      5.306685   905A      5.330236  
     906A      5.336069   907A      5.347912   908A      5.355857  
     909A      5.362276   910A      5.382090   911A      5.390084  
     912A      5.401475   913A      5.410358   914A      5.416121  
     915A      5.428598   916A      5.443407   917A      5.448125  
     918A      5.477382   919A      5.480284   920A      5.499534  
     921A      5.505331   922A      5.521739   923A      5.529283  
     924A      5.543437   925A      5.544206   926A      5.564858  
     927A      5.590992   928A      5.609669   929A      5.639557  
     930A      5.659588   931A      5.676608   932A      5.696570  
     933A      5.698637   934A      5.717617   935A      5.763966  
     936A      5.768720   937A      5.779496   938A      5.788275  
     939A      5.800183   940A      5.809184   941A      5.827685  
     942A      5.846860   943A      5.871220   944A      5.927021  
     945A      5.940553   946A      6.013147   947A      6.051237  
     948A      6.059021   949A      6.068021   950A      6.079782  
     951A      6.114153   952A      6.146195   953A      6.156636  
     954A      6.174237   955A      6.206978   956A      6.214474  
     957A      6.227482   958A      6.239013   959A      6.288318  
     960A      6.306751   961A      6.340775   962A      6.360789  
     963A      6.377720   964A      6.426345   965A      6.469668  
     966A      6.488627   967A      6.516755   968A      6.539659  
     969A      6.553402   970A      6.592500   971A      6.622154  
     972A      6.654543   973A      6.729910   974A      6.785761  
     975A      6.805766   976A      6.834105   977A      6.874321  
     978A      6.911288   979A      6.936691   980A      6.965170  
     981A      6.994570   982A      7.041396   983A      7.043856  
     984A      7.082739   985A      7.152424   986A      7.231481  
     987A      7.247196   988A      7.260449   989A      7.301545  
     990A      7.513960   991A      7.609151   992A      7.685424  
     993A      7.854508   994A      7.965827   995A      7.980331  
     996A      8.529633   997A      8.642318   998A     16.070455  
     999A     16.092086  1000A     16.239767  1001A     16.679836  
    1002A     16.839543  1003A     18.197002  1004A     18.717870  
    1005A     18.811824  1006A     19.560525  1007A     19.680063  
    1008A     19.758254  1009A     20.010208  1010A     20.311525  
    1011A     20.530320  1012A     21.282755  

    Final Occupation by Irrep:
              A 
    DOCC [    53 ]

  @DF-RHF Final Energy:  -613.36877341312879

   => Energetics <=

    Nuclear Repulsion Energy =            870.7129482186022642
    One-Electron Energy =               -2559.5397757585465115
    Two-Electron Energy =                1075.4580541268153411
    Total Energy =                       -613.3687734131287925

Computation Completed

*** tstop() called on c418-114.stampede2.tacc.utexas.edu at Sun Mar  7 02:12:55 2021
Module time:
	user time   =    1896.10 seconds =      31.60 minutes
	system time =      98.73 seconds =       1.65 minutes
	total time  =         91 seconds =       1.52 minutes
Total time:
	user time   =    1896.10 seconds =      31.60 minutes
	system time =      98.73 seconds =       1.65 minutes
	total time  =         91 seconds =       1.52 minutes
   => Loading Basis Set <=

    Name: (AUG-CC-PVTZ AUX)
    Role: RIFIT
    Keyword: DF_BASIS_MP2
    atoms 1     entry O          line   264 file /home1/07844/xy3866/miniconda3/envs/p4env/share/psi4/basis/aug-cc-pvtz-ri.gbs 
    atoms 2-15  entry C          line   148 file /home1/07844/xy3866/miniconda3/envs/p4env/share/psi4/basis/aug-cc-pvtz-ri.gbs 
    atoms 16-29 entry H          line    30 file /home1/07844/xy3866/miniconda3/envs/p4env/share/psi4/basis/aug-cc-pvtz-ri.gbs 


*** tstart() called on c418-114.stampede2.tacc.utexas.edu
*** at Sun Mar  7 02:12:56 2021


  //>>>>>>>>>>>>>>>>>>>>>>>>>>>>>>>>>>>//
  //               DFMP2               //
  //<<<<<<<<<<<<<<<<<<<<<<<<<<<<<<<<<<<//

	 --------------------------------------------------------
	                          DF-MP2                         
	      2nd-Order Density-Fitted Moller-Plesset Theory     
	              RMP2 Wavefunction,  32 Threads             
	                                                         
	        Rob Parrish, Justin Turney, Andy Simmonett,      
	           Ed Hohenstein, and C. David Sherrill          
	 --------------------------------------------------------

   => Auxiliary Basis Set <=

  Basis Set: (AUG-CC-PVTZ AUX)
    Blend: AUG-CC-PVTZ-RI
    Number of shells: 616
    Number of basis functions: 2234
    Number of Cartesian functions: 2810
    Spherical Harmonics?: true
    Max angular momentum: 4

	 --------------------------------------------------------
	                 NBF =  1012, NAUX =  2234
	 --------------------------------------------------------
	   CLASS    FOCC     OCC    AOCC    AVIR     VIR    FVIR
	   PAIRS       0      53      53     959     959       0
	 --------------------------------------------------------

  DFHelper Memory: AOs need 14.137 GiB; user supplied 22.352 GiB. Using in-core AOs.


         ------------------------------------------------------------
                                     CPHF                           
                                  Rob Parrish                       
         ------------------------------------------------------------

  ==> Geometry <==

    Molecular point group: c1
    Full point group: C1

    Geometry (in Angstrom), charge = 0, multiplicity = 1:

       Center              X                  Y                   Z               Mass       
    ------------   -----------------  -----------------  -----------------  -----------------
         O            0.829325063457    -0.237091911192    -0.192096878357    15.994914619570
         C           -1.389457936543     0.486352088808     0.171740121643    12.000000000000
         C            0.056125063457     0.861253088808     0.306215121643    12.000000000000
         C           -4.117627436543    -0.204197011192    -0.087126078357    12.000000000000
         C           -1.865483936543    -0.683297911192     0.777152121643    12.000000000000
         C           -2.281127936543     1.288900088808    -0.543905878357    12.000000000000
         C           -3.208342936543    -1.035349911192     0.667513121643    12.000000000000
         C           -3.628448936543     0.936291088808    -0.642536878357    12.000000000000
         C            2.195831063457    -0.126978911192    -0.098818878357    12.000000000000
         C           -5.571758936543    -0.597204911192    -0.119927878357    12.000000000000
         C            2.877864063457     0.995060088808     0.384155121643    12.000000000000
         C            2.911003063457    -1.249618911192    -0.538165878357    12.000000000000
         C            4.277005063457     0.978565088808     0.424150121643    12.000000000000
         C            4.300868063457    -1.249647911192    -0.493330878357    12.000000000000
         C            4.993876063457    -0.134139911192    -0.009714878357    12.000000000000
         H            0.274127063457     1.774306088808    -0.265105878357     1.007825032230
         H            0.318889063457     1.045198088808     1.358125121643     1.007825032230
         H           -1.173653936543    -1.324197911192     1.319737121643     1.007825032230
         H           -1.921745936543     2.192886088808    -1.033192878357     1.007825032230
         H           -3.562927936543    -1.952020911192     1.136651121643     1.007825032230
         H           -4.309552936543     1.570735088808    -1.207566878357     1.007825032230
         H           -6.040090936543    -0.160550911192    -1.006481878357     1.007825032230
         H           -5.703613936543    -1.682091911192    -0.165609878357     1.007825032230
         H           -6.117403936543    -0.234074911192     0.757933121643     1.007825032230
         H            2.346481063457     1.877652088808     0.723408121643     1.007825032230
         H            2.351731063457    -2.104167911192    -0.909252878357     1.007825032230
         H            4.803691063457     1.852653088808     0.800364121643     1.007825032230
         H            4.846335063457    -2.125614911192    -0.836466878357     1.007825032230
         H            6.079955063457    -0.134941911192     0.025785121643     1.007825032230

  Nuclear repulsion =  870.712948218602037
  Reference energy  = -613.368773413128793

  ==> Basis Set <==

  Basis Set: AUG-CC-PVTZ
    Blend: AUG-CC-PVTZ
    Number of shells: 336
    Number of basis functions: 1012
    Number of Cartesian functions: 1175
    Spherical Harmonics?: true
    Max angular momentum: 3

  ==> CGRSolver (by Rob Parrish) <==

   Number of roots    =         1
   Preconditioning    =    JACOBI
   Convergence cutoff =     1E-06
   Maximum iterations =       100

  ==> CPHFRHamiltonian (by Rob Parrish) <== 

  ==> MemDFJK: Density-Fitted J/K Matrices <==

    J tasked:                   Yes
    K tasked:                   Yes
    wK tasked:                   No
    OpenMP threads:              32
    Memory [MiB]:             22888
    Algorithm:                 Core
    Schwarz Cutoff:           1E-12
    Mask sparsity (%):      18.8302
    Fitting Condition:        1E-10

   => Auxiliary Basis Set <=

  Basis Set: (AUG-CC-PVTZ AUX)
    Blend: AUG-CC-PVTZ-JKFIT
    Number of shells: 646
    Number of basis functions: 2204
    Number of Cartesian functions: 2735
    Spherical Harmonics?: true
    Max angular momentum: 4

  ==> CPHF Iterations <==

  => Iterations <=

             Iter  Converged  Remaining    Residual
  CGR           1          0          1   8.907E-02
  CGR           2          0          1   2.449E-02
  CGR           3          0          1   1.349E-02
  CGR           4          0          1   6.391E-03
  CGR           5          0          1   2.470E-03
  CGR           6          0          1   1.059E-03
  CGR           7          0          1   3.678E-04
  CGR           8          0          1   1.261E-04
  CGR           9          0          1   4.198E-05
  CGR          10          0          1   1.862E-05
  CGR          11          0          1   1.047E-05
  CGR          12          0          1   3.393E-06
  CGR          13          0          1   1.346E-06
  CGR          14          1          0   3.682E-07

    CGRSolver converged.

	-----------------------------------------------------------
	 ==================> DF-MP2 Energies <==================== 
	-----------------------------------------------------------
	 Reference Energy          =    -613.3687734131287925 [Eh]
	 Singles Energy            =      -0.0000000000000000 [Eh]
	 Same-Spin Energy          =      -0.6724579720805243 [Eh]
	 Opposite-Spin Energy      =      -2.1165894285652751 [Eh]
	 Correlation Energy        =      -2.7890474006457993 [Eh]
	 Total Energy              =    -616.1578208137746060 [Eh]
	-----------------------------------------------------------
	 ================> DF-SCS-MP2 Energies <================== 
	-----------------------------------------------------------
	 SCS Same-Spin Scale       =       0.3333333333333333 [-]
	 SCS Opposite-Spin Scale   =       1.2000000000000000 [-]
	 SCS Same-Spin Energy      =      -0.2241526573601748 [Eh]
	 SCS Opposite-Spin Energy  =      -2.5399073142783299 [Eh]
	 SCS Correlation Energy    =      -2.7640599716385048 [Eh]
	 SCS Total Energy          =    -616.1328333847673093 [Eh]
	-----------------------------------------------------------



Properties will be evaluated at   0.000000,  -0.000000,  -0.000000 [a0]

Properties computed using the MP2 density matrix

  Nuclear Dipole Moment: [e a0]
     X:    -7.3156      Y:     0.5574      Z:     0.6537

  Electronic Dipole Moment: [e a0]
     X:     6.9249      Y:    -0.2718      Z:    -0.4618

  Dipole Moment: [e a0]
     X:    -0.3907      Y:     0.2855      Z:     0.1919     Total:     0.5205

  Dipole Moment: [D]
     X:    -0.9930      Y:     0.7258      Z:     0.4878     Total:     1.3231


*** tstop() called on c418-114.stampede2.tacc.utexas.edu at Sun Mar  7 02:23:16 2021
Module time:
	user time   =    7382.53 seconds =     123.04 minutes
	system time =     155.95 seconds =       2.60 minutes
	total time  =        620 seconds =      10.33 minutes
Total time:
	user time   =    9280.07 seconds =     154.67 minutes
	system time =     254.71 seconds =       4.25 minutes
	total time  =        712 seconds =      11.87 minutes

    Psi4 stopped on: Sunday, 07 March 2021 02:23AM
    Psi4 wall time for execution: 0:11:54.16

*** Psi4 exiting successfully. Buy a developer a beer!
