
    -----------------------------------------------------------------------
          Psi4: An Open-Source Ab Initio Electronic Structure Package
                               Psi4 1.4a3.dev225 

                         Git: Rev {master} 7105e37 


    D. G. A. Smith, L. A. Burns, A. C. Simmonett, R. M. Parrish,
    M. C. Schieber, R. Galvelis, P. Kraus, H. Kruse, R. Di Remigio,
    A. Alenaizan, A. M. James, S. Lehtola, J. P. Misiewicz, M. Scheurer,
    R. A. Shaw, J. B. Schriber, Y. Xie, Z. L. Glick, D. A. Sirianni,
    J. S. O'Brien, J. M. Waldrop, A. Kumar, E. G. Hohenstein,
    B. P. Pritchard, B. R. Brooks, H. F. Schaefer III, A. Yu. Sokolov,
    K. Patkowski, A. E. DePrince III, U. Bozkaya, R. A. King,
    F. A. Evangelista, J. M. Turney, T. D. Crawford, C. D. Sherrill,
    J. Chem. Phys. 152(18) 184108 (2020). https://doi.org/10.1063/5.0006002

                            Additional Code Authors
    E. T. Seidl, C. L. Janssen, E. F. Valeev, M. L. Leininger,
    J. F. Gonthier, R. M. Richard, H. R. McAlexander, M. Saitow, X. Wang,
    P. Verma, and M. H. Lechner

             Previous Authors, Complete List of Code Contributors,
                       and Citations for Specific Modules
    https://github.com/psi4/psi4/blob/master/codemeta.json
    https://github.com/psi4/psi4/graphs/contributors
    http://psicode.org/psi4manual/master/introduction.html#citing-psifour

    -----------------------------------------------------------------------


    Psi4 started on: Sunday, 07 March 2021 07:32AM

    Process ID: 199409
    Host:       c418-114.stampede2.tacc.utexas.edu
    PSIDATADIR: /home1/07844/xy3866/miniconda3/envs/p4env/share/psi4
    Memory:     500.0 MiB
    Threads:    32
    
  ==> Input File <==

--------------------------------------------------------------------------
#psi4
#
memory 32 gb

molecule  {
0 1
  O        0.8655410    -0.2383350    -0.1978900
  C       -1.3532420     0.4851090     0.1659470
  C        0.0923410     0.8600100     0.3004220
  C       -4.0939353    -0.2484464    -0.0429033
  C       -1.8292680    -0.6845410     0.7713590
  C       -2.2449120     1.2876570    -0.5496990
  C       -3.1721270    -1.0365930     0.6617200
  C       -3.5922330     0.9350480    -0.6483300
  C        2.2320470    -0.1282220    -0.1046120
  C       -5.5355430    -0.5984480    -0.1257210
  C        2.9140800     0.9938170     0.3783620
  C        2.9472190    -1.2508620    -0.5439590
  C        4.3132210     0.9773220     0.4183570
  C        4.3370840    -1.2508910    -0.4991240
  C        5.0300920    -0.1353830    -0.0155080
  H        0.3103430     1.7730630    -0.2708990
  H        0.3551050     1.0439550     1.3523320
  H       -1.1374380    -1.3254410     1.3139440
  H       -1.8855300     2.1916430    -1.0389860
  H       -3.5267120    -1.9532640     1.1308580
  H       -4.2733370     1.5694920    -1.2133600
  H       -6.0038750    -0.1617940    -1.0122750
  H       -5.6673980    -1.6833350    -0.1714030
  H       -6.0811880    -0.2353180     0.7521400
  H        2.3826970     1.8764090     0.7176150
  H        2.3879470    -2.1054110    -0.9150460
  H        4.8399070     1.8514100     0.7945710
  H        4.8825510    -2.1268580    -0.8422600
  H        6.1161710    -0.1361850     0.0199920
units angstrom
no_reorient  #important for SAPT in psi4, default
symmetry c1  #important for SAPT in psi4, default
}

set PROPERTIES_ORIGIN ["COM"]
properties('MP2/aug-cc-pvtz', properties = ['dipole'])
--------------------------------------------------------------------------

  Memory set to  29.802 GiB by Python driver.
    SCF Algorithm Type (re)set to DF.

*** tstart() called on c418-114.stampede2.tacc.utexas.edu
*** at Sun Mar  7 07:32:22 2021

   => Loading Basis Set <=

    Name: AUG-CC-PVTZ
    Role: ORBITAL
    Keyword: BASIS
    atoms 1     entry O          line   331 file /home1/07844/xy3866/miniconda3/envs/p4env/share/psi4/basis/aug-cc-pvtz.gbs 
    atoms 2-15  entry C          line   239 file /home1/07844/xy3866/miniconda3/envs/p4env/share/psi4/basis/aug-cc-pvtz.gbs 
    atoms 16-29 entry H          line    40 file /home1/07844/xy3866/miniconda3/envs/p4env/share/psi4/basis/aug-cc-pvtz.gbs 


         ---------------------------------------------------------
                                   SCF
               by Justin Turney, Rob Parrish, Andy Simmonett
                          and Daniel G. A. Smith
                              RHF Reference
                       32 Threads,  30517 MiB Core
         ---------------------------------------------------------

  ==> Geometry <==

    Molecular point group: c1
    Full point group: C1

    Geometry (in Angstrom), charge = 0, multiplicity = 1:

       Center              X                  Y                   Z               Mass       
    ------------   -----------------  -----------------  -----------------  -----------------
         O            0.830083681391    -0.234486843206    -0.195126546566    15.994914619570
         C           -1.388699318609     0.488957156794     0.168710453434    12.000000000000
         C            0.056883681391     0.863858156794     0.303185453434    12.000000000000
         C           -4.129392618609    -0.244598243206    -0.040139846566    12.000000000000
         C           -1.864725318609    -0.680692843206     0.774122453434    12.000000000000
         C           -2.280369318609     1.291505156794    -0.546935546566    12.000000000000
         C           -3.207584318609    -1.032744843206     0.664483453434    12.000000000000
         C           -3.627690318609     0.938896156794    -0.645566546566    12.000000000000
         C            2.196589681391    -0.124373843206    -0.101848546566    12.000000000000
         C           -5.571000318609    -0.594599843206    -0.122957546566    12.000000000000
         C            2.878622681391     0.997665156794     0.381125453434    12.000000000000
         C            2.911761681391    -1.247013843206    -0.541195546566    12.000000000000
         C            4.277763681391     0.981170156794     0.421120453434    12.000000000000
         C            4.301626681391    -1.247042843206    -0.496360546566    12.000000000000
         C            4.994634681391    -0.131534843206    -0.012744546566    12.000000000000
         H            0.274885681391     1.776911156794    -0.268135546566     1.007825032230
         H            0.319647681391     1.047803156794     1.355095453434     1.007825032230
         H           -1.172895318609    -1.321592843206     1.316707453434     1.007825032230
         H           -1.920987318609     2.195491156794    -1.036222546566     1.007825032230
         H           -3.562169318609    -1.949415843206     1.133621453434     1.007825032230
         H           -4.308794318609     1.573340156794    -1.210596546566     1.007825032230
         H           -6.039332318609    -0.157945843206    -1.009511546566     1.007825032230
         H           -5.702855318609    -1.679486843206    -0.168639546566     1.007825032230
         H           -6.116645318609    -0.231469843206     0.754903453434     1.007825032230
         H            2.347239681391     1.880257156794     0.720378453434     1.007825032230
         H            2.352489681391    -2.101562843206    -0.912282546566     1.007825032230
         H            4.804449681391     1.855258156794     0.797334453434     1.007825032230
         H            4.847093681391    -2.123009843206    -0.839496546566     1.007825032230
         H            6.080713681391    -0.132336843206     0.022755453434     1.007825032230

  Running in c1 symmetry.

  Rotational constants: A =      0.08040  B =      0.00739  C =      0.00702 [cm^-1]
  Rotational constants: A =   2410.38495  B =    221.47319  C =    210.55364 [MHz]
  Nuclear repulsion =  870.489522155916006

  Charge       = 0
  Multiplicity = 1
  Electrons    = 106
  Nalpha       = 53
  Nbeta        = 53

  ==> Algorithm <==

  SCF Algorithm Type is DF.
  DIIS enabled.
  MOM disabled.
  Fractional occupation disabled.
  Guess Type is SAD.
  Energy threshold   = 1.00e-10
  Density threshold  = 1.00e-10
  Integral threshold = 1.00e-12

  ==> Primary Basis <==

  Basis Set: AUG-CC-PVTZ
    Blend: AUG-CC-PVTZ
    Number of shells: 336
    Number of basis functions: 1012
    Number of Cartesian functions: 1175
    Spherical Harmonics?: true
    Max angular momentum: 3

   => Loading Basis Set <=

    Name: (AUG-CC-PVTZ AUX)
    Role: JKFIT
    Keyword: DF_BASIS_SCF
    atoms 1     entry O          line   286 file /home1/07844/xy3866/miniconda3/envs/p4env/share/psi4/basis/aug-cc-pvtz-jkfit.gbs 
    atoms 2-15  entry C          line   162 file /home1/07844/xy3866/miniconda3/envs/p4env/share/psi4/basis/aug-cc-pvtz-jkfit.gbs 
    atoms 16-29 entry H          line    70 file /home1/07844/xy3866/miniconda3/envs/p4env/share/psi4/basis/aug-cc-pvtz-jkfit.gbs 

  ==> Integral Setup <==

  DFHelper Memory: AOs need 12.881 GiB; user supplied 22.352 GiB. Using in-core AOs.

  ==> MemDFJK: Density-Fitted J/K Matrices <==

    J tasked:                   Yes
    K tasked:                   Yes
    wK tasked:                   No
    OpenMP threads:              32
    Memory [MiB]:             22888
    Algorithm:                 Core
    Schwarz Cutoff:           1E-12
    Mask sparsity (%):      26.3002
    Fitting Condition:        1E-10

   => Auxiliary Basis Set <=

  Basis Set: (AUG-CC-PVTZ AUX)
    Blend: AUG-CC-PVTZ-JKFIT
    Number of shells: 646
    Number of basis functions: 2204
    Number of Cartesian functions: 2735
    Spherical Harmonics?: true
    Max angular momentum: 4

  Minimum eigenvalue in the overlap matrix is 4.6666287394E-07.
  Reciprocal condition number of the overlap matrix is 2.3199723179E-08.
    Using symmetric orthogonalization.

  ==> Pre-Iterations <==

  SCF Guess: Superposition of Atomic Densities via on-the-fly atomic UHF (no occupation information).

   -------------------------
    Irrep   Nso     Nmo    
   -------------------------
     A       1012    1012 
   -------------------------
    Total    1012    1012
   -------------------------

  ==> Iterations <==

                           Total Energy        Delta E     RMS |[F,P]|

   @DF-RHF iter SAD:  -612.67977377660259   -6.12680e+02   0.00000e+00 
   @DF-RHF iter   1:  -612.94328505819135   -2.63511e-01   8.18248e-04 DIIS
   @DF-RHF iter   2:  -613.29369052042421   -3.50405e-01   3.71845e-04 DIIS
   @DF-RHF iter   3:  -613.36500303835976   -7.13125e-02   7.81751e-05 DIIS
   @DF-RHF iter   4:  -613.36972241095032   -4.71937e-03   2.77403e-05 DIIS
   @DF-RHF iter   5:  -613.37018290326773   -4.60492e-04   6.82699e-06 DIIS
   @DF-RHF iter   6:  -613.37021793901135   -3.50357e-05   2.27668e-06 DIIS
   @DF-RHF iter   7:  -613.37022229870934   -4.35970e-06   6.30220e-07 DIIS
   @DF-RHF iter   8:  -613.37022283676197   -5.38053e-07   2.45757e-07 DIIS
   @DF-RHF iter   9:  -613.37022293241023   -9.56483e-08   1.17727e-07 DIIS
   @DF-RHF iter  10:  -613.37022295342331   -2.10131e-08   3.97848e-08 DIIS
   @DF-RHF iter  11:  -613.37022295838301   -4.95970e-09   1.83850e-08 DIIS
   @DF-RHF iter  12:  -613.37022295948032   -1.09731e-09   9.23966e-09 DIIS
   @DF-RHF iter  13:  -613.37022295973179   -2.51475e-10   2.67238e-09 DIIS
   @DF-RHF iter  14:  -613.37022295975419   -2.23963e-11   1.11054e-09 DIIS
   @DF-RHF iter  15:  -613.37022295975521   -1.02318e-12   3.17551e-10 DIIS
   @DF-RHF iter  16:  -613.37022295975601   -7.95808e-13   1.19790e-10 DIIS
   @DF-RHF iter  17:  -613.37022295975487    1.13687e-12   6.27108e-11 DIIS
  Energy and wave function converged.


  ==> Post-Iterations <==

    Orbital Energies [Eh]
    ---------------------

    Doubly Occupied:                                                      

       1A    -20.583857     2A    -11.300971     3A    -11.293125  
       4A    -11.245359     5A    -11.240924     6A    -11.239359  
       7A    -11.239110     8A    -11.237490     9A    -11.234938  
      10A    -11.234386    11A    -11.232907    12A    -11.232035  
      13A    -11.227639    14A    -11.227221    15A    -11.225565  
      16A     -1.404811    17A     -1.157486    18A     -1.143462  
      19A     -1.068223    20A     -1.017909    21A     -1.012544  
      22A     -1.008758    23A     -0.965460    24A     -0.899407  
      25A     -0.831778    26A     -0.831376    27A     -0.808455  
      28A     -0.782014    29A     -0.721092    30A     -0.683638  
      31A     -0.670416    32A     -0.663646    33A     -0.644537  
      34A     -0.631125    35A     -0.620531    36A     -0.609176  
      37A     -0.586755    38A     -0.581935    39A     -0.579047  
      40A     -0.565149    41A     -0.544072    42A     -0.533503  
      43A     -0.522382    44A     -0.514456    45A     -0.492604  
      46A     -0.486117    47A     -0.483263    48A     -0.478244  
      49A     -0.463916    50A     -0.339901    51A     -0.336683  
      52A     -0.319977    53A     -0.312255  

    Virtual:                                                              

      54A     -0.148365    55A      0.027162    56A      0.028310  
      57A      0.032289    58A      0.036512    59A      0.037532  
      60A      0.043369    61A      0.047824    62A      0.049227  
      63A      0.053377    64A      0.060483    65A      0.063489  
      66A      0.069528    67A      0.077749    68A      0.081100  
      69A      0.088584    70A      0.092105    71A      0.098941  
      72A      0.102071    73A      0.102910    74A      0.105560  
      75A      0.107955    76A      0.110152    77A      0.111490  
      78A      0.114023    79A      0.116445    80A      0.119484  
      81A      0.124307    82A      0.125979    83A      0.127000  
      84A      0.129528    85A      0.129987    86A      0.130830  
      87A      0.135827    88A      0.140589    89A      0.140887  
      90A      0.143535    91A      0.145963    92A      0.147652  
      93A      0.150308    94A      0.152395    95A      0.157767  
      96A      0.160050    97A      0.162763    98A      0.165668  
      99A      0.168035   100A      0.169123   101A      0.171200  
     102A      0.176624   103A      0.180921   104A      0.188468  
     105A      0.190243   106A      0.193969   107A      0.198433  
     108A      0.204676   109A      0.208990   110A      0.213543  
     111A      0.219241   112A      0.225995   113A      0.229140  
     114A      0.234316   115A      0.235650   116A      0.246595  
     117A      0.250779   118A      0.254952   119A      0.257193  
     120A      0.257723   121A      0.260417   122A      0.264144  
     123A      0.265871   124A      0.270024   125A      0.276367  
     126A      0.280332   127A      0.281968   128A      0.284038  
     129A      0.288933   130A      0.291715   131A      0.292196  
     132A      0.297186   133A      0.299234   134A      0.301303  
     135A      0.305366   136A      0.309713   137A      0.311354  
     138A      0.317195   139A      0.318744   140A      0.321497  
     141A      0.323621   142A      0.327877   143A      0.330903  
     144A      0.335112   145A      0.336562   146A      0.339915  
     147A      0.342732   148A      0.345921   149A      0.349217  
     150A      0.352872   151A      0.355963   152A      0.358549  
     153A      0.362736   154A      0.366282   155A      0.369777  
     156A      0.373936   157A      0.378865   158A      0.380000  
     159A      0.387495   160A      0.390466   161A      0.391198  
     162A      0.393413   163A      0.398626   164A      0.402908  
     165A      0.405880   166A      0.412846   167A      0.415155  
     168A      0.415670   169A      0.422427   170A      0.423830  
     171A      0.428058   172A      0.432997   173A      0.437438  
     174A      0.439986   175A      0.441656   176A      0.446575  
     177A      0.447628   178A      0.453492   179A      0.455981  
     180A      0.457080   181A      0.461804   182A      0.466109  
     183A      0.466834   184A      0.470339   185A      0.473245  
     186A      0.475506   187A      0.478715   188A      0.479800  
     189A      0.482073   190A      0.485471   191A      0.486588  
     192A      0.490107   193A      0.495217   194A      0.496292  
     195A      0.501449   196A      0.503488   197A      0.505431  
     198A      0.508619   199A      0.511364   200A      0.514892  
     201A      0.517966   202A      0.519527   203A      0.522739  
     204A      0.523846   205A      0.525892   206A      0.528607  
     207A      0.532808   208A      0.538275   209A      0.540234  
     210A      0.541177   211A      0.542673   212A      0.545834  
     213A      0.546240   214A      0.553072   215A      0.553894  
     216A      0.555754   217A      0.561049   218A      0.562729  
     219A      0.568380   220A      0.570737   221A      0.576403  
     222A      0.577410   223A      0.584042   224A      0.587475  
     225A      0.590104   226A      0.597008   227A      0.601156  
     228A      0.605588   229A      0.607547   230A      0.615043  
     231A      0.619673   232A      0.624345   233A      0.628239  
     234A      0.631062   235A      0.633489   236A      0.637645  
     237A      0.641682   238A      0.648263   239A      0.654970  
     240A      0.658740   241A      0.665310   242A      0.668670  
     243A      0.674209   244A      0.681087   245A      0.687950  
     246A      0.693743   247A      0.698738   248A      0.703016  
     249A      0.705059   250A      0.709014   251A      0.709602  
     252A      0.711366   253A      0.718439   254A      0.722915  
     255A      0.725414   256A      0.732894   257A      0.738193  
     258A      0.742199   259A      0.748478   260A      0.752338  
     261A      0.759503   262A      0.764456   263A      0.765770  
     264A      0.768441   265A      0.776053   266A      0.785864  
     267A      0.789003   268A      0.794131   269A      0.801488  
     270A      0.802669   271A      0.808023   272A      0.813676  
     273A      0.818222   274A      0.824351   275A      0.832478  
     276A      0.834945   277A      0.836479   278A      0.840342  
     279A      0.844088   280A      0.849678   281A      0.859478  
     282A      0.863038   283A      0.864493   284A      0.866812  
     285A      0.875265   286A      0.876953   287A      0.879881  
     288A      0.884051   289A      0.890073   290A      0.895324  
     291A      0.898330   292A      0.901097   293A      0.904031  
     294A      0.909014   295A      0.911235   296A      0.917051  
     297A      0.918929   298A      0.920981   299A      0.923250  
     300A      0.925839   301A      0.926932   302A      0.933281  
     303A      0.935812   304A      0.938262   305A      0.946165  
     306A      0.950707   307A      0.952393   308A      0.954465  
     309A      0.958319   310A      0.959824   311A      0.962199  
     312A      0.970338   313A      0.975368   314A      0.981023  
     315A      0.983675   316A      0.986663   317A      0.990781  
     318A      0.992718   319A      0.997797   320A      1.002618  
     321A      1.010562   322A      1.015345   323A      1.016821  
     324A      1.018956   325A      1.020991   326A      1.023521  
     327A      1.026408   328A      1.030398   329A      1.035971  
     330A      1.040045   331A      1.043875   332A      1.051079  
     333A      1.053360   334A      1.057685   335A      1.059424  
     336A      1.063903   337A      1.068413   338A      1.070265  
     339A      1.071985   340A      1.076247   341A      1.079699  
     342A      1.082023   343A      1.083188   344A      1.089367  
     345A      1.091356   346A      1.095202   347A      1.100746  
     348A      1.103554   349A      1.105779   350A      1.109193  
     351A      1.113289   352A      1.115430   353A      1.117283  
     354A      1.120238   355A      1.126980   356A      1.129135  
     357A      1.135781   358A      1.136741   359A      1.144758  
     360A      1.147632   361A      1.150499   362A      1.155120  
     363A      1.164512   364A      1.167209   365A      1.169615  
     366A      1.174953   367A      1.177932   368A      1.179526  
     369A      1.185708   370A      1.189653   371A      1.192987  
     372A      1.195274   373A      1.196419   374A      1.202517  
     375A      1.206397   376A      1.211587   377A      1.215911  
     378A      1.217224   379A      1.222858   380A      1.225711  
     381A      1.228612   382A      1.230920   383A      1.234145  
     384A      1.237149   385A      1.240809   386A      1.247525  
     387A      1.253496   388A      1.255641   389A      1.263792  
     390A      1.265164   391A      1.267350   392A      1.268130  
     393A      1.273842   394A      1.282721   395A      1.289429  
     396A      1.297247   397A      1.298342   398A      1.302897  
     399A      1.304758   400A      1.313941   401A      1.316996  
     402A      1.320919   403A      1.329231   404A      1.335282  
     405A      1.340482   406A      1.344423   407A      1.348882  
     408A      1.357669   409A      1.361349   410A      1.372179  
     411A      1.374259   412A      1.375322   413A      1.384595  
     414A      1.387882   415A      1.397568   416A      1.399313  
     417A      1.402128   418A      1.406234   419A      1.414225  
     420A      1.417981   421A      1.423563   422A      1.424937  
     423A      1.438000   424A      1.447241   425A      1.448095  
     426A      1.458844   427A      1.463741   428A      1.470418  
     429A      1.473055   430A      1.483335   431A      1.490244  
     432A      1.496440   433A      1.500352   434A      1.505736  
     435A      1.507639   436A      1.514558   437A      1.516548  
     438A      1.520704   439A      1.525294   440A      1.542370  
     441A      1.547228   442A      1.555533   443A      1.558389  
     444A      1.559878   445A      1.569180   446A      1.573577  
     447A      1.579750   448A      1.587303   449A      1.597916  
     450A      1.610996   451A      1.613874   452A      1.617861  
     453A      1.631366   454A      1.632660   455A      1.633973  
     456A      1.641799   457A      1.651545   458A      1.656799  
     459A      1.664017   460A      1.674775   461A      1.679406  
     462A      1.686993   463A      1.687478   464A      1.693035  
     465A      1.700120   466A      1.707800   467A      1.710043  
     468A      1.714316   469A      1.719497   470A      1.725480  
     471A      1.727374   472A      1.731365   473A      1.738138  
     474A      1.741056   475A      1.748074   476A      1.758044  
     477A      1.762635   478A      1.767393   479A      1.769785  
     480A      1.780434   481A      1.784155   482A      1.798812  
     483A      1.805066   484A      1.807784   485A      1.811453  
     486A      1.812531   487A      1.824796   488A      1.835416  
     489A      1.837552   490A      1.845395   491A      1.850228  
     492A      1.852455   493A      1.857748   494A      1.859614  
     495A      1.870976   496A      1.872289   497A      1.877673  
     498A      1.886655   499A      1.886870   500A      1.890872  
     501A      1.901679   502A      1.901883   503A      1.903363  
     504A      1.912277   505A      1.922039   506A      1.929529  
     507A      1.931252   508A      1.934630   509A      1.943695  
     510A      1.951484   511A      1.955123   512A      1.957499  
     513A      1.968914   514A      1.970963   515A      1.988379  
     516A      1.992307   517A      1.996644   518A      2.000464  
     519A      2.004481   520A      2.010586   521A      2.018170  
     522A      2.022170   523A      2.032860   524A      2.034454  
     525A      2.039885   526A      2.041665   527A      2.052176  
     528A      2.057611   529A      2.063643   530A      2.069380  
     531A      2.077452   532A      2.083936   533A      2.092390  
     534A      2.094465   535A      2.099990   536A      2.106276  
     537A      2.106943   538A      2.118112   539A      2.122631  
     540A      2.125836   541A      2.135751   542A      2.136909  
     543A      2.141109   544A      2.145146   545A      2.156345  
     546A      2.160256   547A      2.164084   548A      2.170202  
     549A      2.171730   550A      2.180253   551A      2.184485  
     552A      2.187836   553A      2.192538   554A      2.202458  
     555A      2.213449   556A      2.215823   557A      2.230065  
     558A      2.232341   559A      2.241907   560A      2.250717  
     561A      2.252815   562A      2.258762   563A      2.271284  
     564A      2.279415   565A      2.290067   566A      2.296009  
     567A      2.302487   568A      2.310918   569A      2.318390  
     570A      2.333612   571A      2.342522   572A      2.346329  
     573A      2.351317   574A      2.356391   575A      2.359741  
     576A      2.371309   577A      2.386697   578A      2.389751  
     579A      2.393741   580A      2.402460   581A      2.410143  
     582A      2.412182   583A      2.421135   584A      2.425611  
     585A      2.431973   586A      2.439737   587A      2.447348  
     588A      2.458667   589A      2.466972   590A      2.473720  
     591A      2.488401   592A      2.506010   593A      2.512469  
     594A      2.524899   595A      2.534533   596A      2.539458  
     597A      2.555921   598A      2.586183   599A      2.595277  
     600A      2.602821   601A      2.620991   602A      2.636706  
     603A      2.645319   604A      2.645949   605A      2.658001  
     606A      2.669006   607A      2.674875   608A      2.682820  
     609A      2.695663   610A      2.714465   611A      2.733660  
     612A      2.741217   613A      2.751367   614A      2.769260  
     615A      2.786717   616A      2.805891   617A      2.813340  
     618A      2.819449   619A      2.828078   620A      2.834217  
     621A      2.856929   622A      2.860921   623A      2.877007  
     624A      2.885472   625A      2.909304   626A      2.935451  
     627A      2.952104   628A      2.957856   629A      2.988370  
     630A      3.010525   631A      3.022085   632A      3.036548  
     633A      3.060520   634A      3.079437   635A      3.089045  
     636A      3.111139   637A      3.119961   638A      3.126312  
     639A      3.147605   640A      3.173196   641A      3.193342  
     642A      3.218916   643A      3.224875   644A      3.226038  
     645A      3.229039   646A      3.248699   647A      3.279492  
     648A      3.281773   649A      3.285694   650A      3.287332  
     651A      3.296333   652A      3.309069   653A      3.323926  
     654A      3.336665   655A      3.346436   656A      3.351253  
     657A      3.357535   658A      3.367134   659A      3.375312  
     660A      3.385143   661A      3.388301   662A      3.411814  
     663A      3.413322   664A      3.420615   665A      3.429385  
     666A      3.435095   667A      3.451106   668A      3.458111  
     669A      3.464474   670A      3.473499   671A      3.479671  
     672A      3.484450   673A      3.496072   674A      3.502283  
     675A      3.509840   676A      3.514214   677A      3.531332  
     678A      3.536559   679A      3.547522   680A      3.550599  
     681A      3.553980   682A      3.559203   683A      3.566903  
     684A      3.569917   685A      3.574638   686A      3.578672  
     687A      3.585626   688A      3.591796   689A      3.594212  
     690A      3.606840   691A      3.609582   692A      3.614182  
     693A      3.621673   694A      3.629796   695A      3.637001  
     696A      3.639704   697A      3.651546   698A      3.651736  
     699A      3.665481   700A      3.669023   701A      3.673147  
     702A      3.687798   703A      3.689354   704A      3.699154  
     705A      3.705476   706A      3.710432   707A      3.728169  
     708A      3.729859   709A      3.741812   710A      3.743320  
     711A      3.757882   712A      3.763061   713A      3.770327  
     714A      3.774747   715A      3.782497   716A      3.789180  
     717A      3.802022   718A      3.807834   719A      3.811341  
     720A      3.819320   721A      3.828194   722A      3.840741  
     723A      3.850349   724A      3.852839   725A      3.859604  
     726A      3.869246   727A      3.874626   728A      3.880591  
     729A      3.891343   730A      3.896182   731A      3.901954  
     732A      3.911069   733A      3.919947   734A      3.922025  
     735A      3.931163   736A      3.939801   737A      3.942114  
     738A      3.948527   739A      3.951692   740A      3.961851  
     741A      3.969632   742A      3.976317   743A      3.979787  
     744A      3.983310   745A      3.991862   746A      3.993285  
     747A      3.999228   748A      4.004937   749A      4.009971  
     750A      4.015132   751A      4.022600   752A      4.025778  
     753A      4.029459   754A      4.036651   755A      4.047821  
     756A      4.050908   757A      4.055210   758A      4.066719  
     759A      4.078384   760A      4.088646   761A      4.092873  
     762A      4.106710   763A      4.108563   764A      4.123293  
     765A      4.129965   766A      4.135686   767A      4.142135  
     768A      4.149994   769A      4.152923   770A      4.155559  
     771A      4.164842   772A      4.176590   773A      4.183757  
     774A      4.197051   775A      4.199665   776A      4.212139  
     777A      4.213669   778A      4.222516   779A      4.228741  
     780A      4.240543   781A      4.246183   782A      4.246922  
     783A      4.260781   784A      4.262129   785A      4.274512  
     786A      4.283476   787A      4.287245   788A      4.294281  
     789A      4.303953   790A      4.309494   791A      4.321718  
     792A      4.330371   793A      4.331924   794A      4.337342  
     795A      4.348240   796A      4.350441   797A      4.365492  
     798A      4.372221   799A      4.386800   800A      4.390867  
     801A      4.396803   802A      4.404482   803A      4.415744  
     804A      4.418901   805A      4.423547   806A      4.429289  
     807A      4.432343   808A      4.436151   809A      4.449180  
     810A      4.452242   811A      4.457472   812A      4.466632  
     813A      4.468647   814A      4.470954   815A      4.476276  
     816A      4.484384   817A      4.487879   818A      4.496957  
     819A      4.505409   820A      4.510241   821A      4.521749  
     822A      4.530084   823A      4.543849   824A      4.557516  
     825A      4.562544   826A      4.576695   827A      4.577605  
     828A      4.588097   829A      4.591729   830A      4.606008  
     831A      4.629205   832A      4.633909   833A      4.646039  
     834A      4.651441   835A      4.664809   836A      4.676265  
     837A      4.689667   838A      4.692828   839A      4.710067  
     840A      4.717614   841A      4.729024   842A      4.729468  
     843A      4.736500   844A      4.745326   845A      4.753748  
     846A      4.761886   847A      4.766003   848A      4.774877  
     849A      4.782449   850A      4.786690   851A      4.801336  
     852A      4.826869   853A      4.831282   854A      4.840726  
     855A      4.856481   856A      4.869861   857A      4.881168  
     858A      4.887641   859A      4.900705   860A      4.918171  
     861A      4.920589   862A      4.940118   863A      4.942406  
     864A      4.947097   865A      4.954009   866A      4.963151  
     867A      4.979030   868A      4.991451   869A      4.993786  
     870A      5.003572   871A      5.017015   872A      5.023546  
     873A      5.036956   874A      5.042484   875A      5.056435  
     876A      5.063571   877A      5.076784   878A      5.088261  
     879A      5.095747   880A      5.101018   881A      5.108445  
     882A      5.116923   883A      5.126249   884A      5.131677  
     885A      5.151478   886A      5.154542   887A      5.159985  
     888A      5.165726   889A      5.171060   890A      5.175258  
     891A      5.180121   892A      5.182681   893A      5.191422  
     894A      5.199803   895A      5.207886   896A      5.220253  
     897A      5.240406   898A      5.259019   899A      5.276159  
     900A      5.279746   901A      5.284345   902A      5.295240  
     903A      5.300555   904A      5.304861   905A      5.328369  
     906A      5.337062   907A      5.344022   908A      5.357153  
     909A      5.360997   910A      5.379223   911A      5.394010  
     912A      5.403879   913A      5.410309   914A      5.419196  
     915A      5.428715   916A      5.433164   917A      5.447513  
     918A      5.473964   919A      5.475326   920A      5.500151  
     921A      5.506914   922A      5.517773   923A      5.524965  
     924A      5.540504   925A      5.548832   926A      5.567431  
     927A      5.591508   928A      5.611390   929A      5.639753  
     930A      5.660028   931A      5.677026   932A      5.696519  
     933A      5.700395   934A      5.723642   935A      5.759587  
     936A      5.768849   937A      5.779790   938A      5.786949  
     939A      5.802087   940A      5.813568   941A      5.830729  
     942A      5.847425   943A      5.871484   944A      5.923753  
     945A      5.937161   946A      6.008770   947A      6.050123  
     948A      6.060040   949A      6.075296   950A      6.088630  
     951A      6.105544   952A      6.146796   953A      6.157751  
     954A      6.175107   955A      6.207575   956A      6.217807  
     957A      6.224912   958A      6.246317   959A      6.305406  
     960A      6.316099   961A      6.349568   962A      6.369022  
     963A      6.378289   964A      6.425083   965A      6.446573  
     966A      6.494035   967A      6.519741   968A      6.546688  
     969A      6.569277   970A      6.591319   971A      6.618568  
     972A      6.645059   973A      6.729014   974A      6.782938  
     975A      6.806168   976A      6.832062   977A      6.876442  
     978A      6.911408   979A      6.934802   980A      6.968142  
     981A      6.993800   982A      7.041423   983A      7.043776  
     984A      7.072350   985A      7.153184   986A      7.229458  
     987A      7.245256   988A      7.256853   989A      7.302152  
     990A      7.514067   991A      7.609590   992A      7.685841  
     993A      7.854363   994A      7.966135   995A      7.980120  
     996A      8.530310   997A      8.642951   998A     16.046939  
     999A     16.088326  1000A     16.313875  1001A     16.418557  
    1002A     16.803334  1003A     18.256804  1004A     18.716065  
    1005A     18.798977  1006A     19.560557  1007A     19.624333  
    1008A     19.715090  1009A     20.005870  1010A     20.264250  
    1011A     20.601508  1012A     21.269771  

    Final Occupation by Irrep:
              A 
    DOCC [    53 ]

  @DF-RHF Final Energy:  -613.37022295975487

   => Energetics <=

    Nuclear Repulsion Energy =            870.4895221559160063
    One-Electron Energy =               -2559.0975128526056324
    Two-Electron Energy =                1075.2377677369349840
    Total Energy =                       -613.3702229597547557

Computation Completed

*** tstop() called on c418-114.stampede2.tacc.utexas.edu at Sun Mar  7 07:33:53 2021
Module time:
	user time   =    1925.53 seconds =      32.09 minutes
	system time =      95.16 seconds =       1.59 minutes
	total time  =         91 seconds =       1.52 minutes
Total time:
	user time   =    1925.53 seconds =      32.09 minutes
	system time =      95.16 seconds =       1.59 minutes
	total time  =         91 seconds =       1.52 minutes
   => Loading Basis Set <=

    Name: (AUG-CC-PVTZ AUX)
    Role: RIFIT
    Keyword: DF_BASIS_MP2
    atoms 1     entry O          line   264 file /home1/07844/xy3866/miniconda3/envs/p4env/share/psi4/basis/aug-cc-pvtz-ri.gbs 
    atoms 2-15  entry C          line   148 file /home1/07844/xy3866/miniconda3/envs/p4env/share/psi4/basis/aug-cc-pvtz-ri.gbs 
    atoms 16-29 entry H          line    30 file /home1/07844/xy3866/miniconda3/envs/p4env/share/psi4/basis/aug-cc-pvtz-ri.gbs 


*** tstart() called on c418-114.stampede2.tacc.utexas.edu
*** at Sun Mar  7 07:33:55 2021


  //>>>>>>>>>>>>>>>>>>>>>>>>>>>>>>>>>>>//
  //               DFMP2               //
  //<<<<<<<<<<<<<<<<<<<<<<<<<<<<<<<<<<<//

	 --------------------------------------------------------
	                          DF-MP2                         
	      2nd-Order Density-Fitted Moller-Plesset Theory     
	              RMP2 Wavefunction,  32 Threads             
	                                                         
	        Rob Parrish, Justin Turney, Andy Simmonett,      
	           Ed Hohenstein, and C. David Sherrill          
	 --------------------------------------------------------

   => Auxiliary Basis Set <=

  Basis Set: (AUG-CC-PVTZ AUX)
    Blend: AUG-CC-PVTZ-RI
    Number of shells: 616
    Number of basis functions: 2234
    Number of Cartesian functions: 2810
    Spherical Harmonics?: true
    Max angular momentum: 4

	 --------------------------------------------------------
	                 NBF =  1012, NAUX =  2234
	 --------------------------------------------------------
	   CLASS    FOCC     OCC    AOCC    AVIR     VIR    FVIR
	   PAIRS       0      53      53     959     959       0
	 --------------------------------------------------------

  DFHelper Memory: AOs need 14.136 GiB; user supplied 22.352 GiB. Using in-core AOs.


         ------------------------------------------------------------
                                     CPHF                           
                                  Rob Parrish                       
         ------------------------------------------------------------

  ==> Geometry <==

    Molecular point group: c1
    Full point group: C1

    Geometry (in Angstrom), charge = 0, multiplicity = 1:

       Center              X                  Y                   Z               Mass       
    ------------   -----------------  -----------------  -----------------  -----------------
         O            0.830083681391    -0.234486843206    -0.195126546566    15.994914619570
         C           -1.388699318609     0.488957156794     0.168710453434    12.000000000000
         C            0.056883681391     0.863858156794     0.303185453434    12.000000000000
         C           -4.129392618609    -0.244598243206    -0.040139846566    12.000000000000
         C           -1.864725318609    -0.680692843206     0.774122453434    12.000000000000
         C           -2.280369318609     1.291505156794    -0.546935546566    12.000000000000
         C           -3.207584318609    -1.032744843206     0.664483453434    12.000000000000
         C           -3.627690318609     0.938896156794    -0.645566546566    12.000000000000
         C            2.196589681391    -0.124373843206    -0.101848546566    12.000000000000
         C           -5.571000318609    -0.594599843206    -0.122957546566    12.000000000000
         C            2.878622681391     0.997665156794     0.381125453434    12.000000000000
         C            2.911761681391    -1.247013843206    -0.541195546566    12.000000000000
         C            4.277763681391     0.981170156794     0.421120453434    12.000000000000
         C            4.301626681391    -1.247042843206    -0.496360546566    12.000000000000
         C            4.994634681391    -0.131534843206    -0.012744546566    12.000000000000
         H            0.274885681391     1.776911156794    -0.268135546566     1.007825032230
         H            0.319647681391     1.047803156794     1.355095453434     1.007825032230
         H           -1.172895318609    -1.321592843206     1.316707453434     1.007825032230
         H           -1.920987318609     2.195491156794    -1.036222546566     1.007825032230
         H           -3.562169318609    -1.949415843206     1.133621453434     1.007825032230
         H           -4.308794318609     1.573340156794    -1.210596546566     1.007825032230
         H           -6.039332318609    -0.157945843206    -1.009511546566     1.007825032230
         H           -5.702855318609    -1.679486843206    -0.168639546566     1.007825032230
         H           -6.116645318609    -0.231469843206     0.754903453434     1.007825032230
         H            2.347239681391     1.880257156794     0.720378453434     1.007825032230
         H            2.352489681391    -2.101562843206    -0.912282546566     1.007825032230
         H            4.804449681391     1.855258156794     0.797334453434     1.007825032230
         H            4.847093681391    -2.123009843206    -0.839496546566     1.007825032230
         H            6.080713681391    -0.132336843206     0.022755453434     1.007825032230

  Nuclear repulsion =  870.489522155916006
  Reference energy  = -613.370222959754869

  ==> Basis Set <==

  Basis Set: AUG-CC-PVTZ
    Blend: AUG-CC-PVTZ
    Number of shells: 336
    Number of basis functions: 1012
    Number of Cartesian functions: 1175
    Spherical Harmonics?: true
    Max angular momentum: 3

  ==> CGRSolver (by Rob Parrish) <==

   Number of roots    =         1
   Preconditioning    =    JACOBI
   Convergence cutoff =     1E-06
   Maximum iterations =       100

  ==> CPHFRHamiltonian (by Rob Parrish) <== 

  ==> MemDFJK: Density-Fitted J/K Matrices <==

    J tasked:                   Yes
    K tasked:                   Yes
    wK tasked:                   No
    OpenMP threads:              32
    Memory [MiB]:             22888
    Algorithm:                 Core
    Schwarz Cutoff:           1E-12
    Mask sparsity (%):      18.8382
    Fitting Condition:        1E-10

   => Auxiliary Basis Set <=

  Basis Set: (AUG-CC-PVTZ AUX)
    Blend: AUG-CC-PVTZ-JKFIT
    Number of shells: 646
    Number of basis functions: 2204
    Number of Cartesian functions: 2735
    Spherical Harmonics?: true
    Max angular momentum: 4

  ==> CPHF Iterations <==

  => Iterations <=

             Iter  Converged  Remaining    Residual
  CGR           1          0          1   8.834E-02
  CGR           2          0          1   2.362E-02
  CGR           3          0          1   1.220E-02
  CGR           4          0          1   6.019E-03
  CGR           5          0          1   2.433E-03
  CGR           6          0          1   1.068E-03
  CGR           7          0          1   3.729E-04
  CGR           8          0          1   1.223E-04
  CGR           9          0          1   3.627E-05
  CGR          10          0          1   1.280E-05
  CGR          11          0          1   6.261E-06
  CGR          12          0          1   2.690E-06
  CGR          13          0          1   1.280E-06
  CGR          14          1          0   3.927E-07

    CGRSolver converged.

	-----------------------------------------------------------
	 ==================> DF-MP2 Energies <==================== 
	-----------------------------------------------------------
	 Reference Energy          =    -613.3702229597548694 [Eh]
	 Singles Energy            =      -0.0000000000000000 [Eh]
	 Same-Spin Energy          =      -0.6728969520515278 [Eh]
	 Opposite-Spin Energy      =      -2.1168794670681068 [Eh]
	 Correlation Energy        =      -2.7897764191196348 [Eh]
	 Total Energy              =    -616.1599993788745451 [Eh]
	-----------------------------------------------------------
	 ================> DF-SCS-MP2 Energies <================== 
	-----------------------------------------------------------
	 SCS Same-Spin Scale       =       0.3333333333333333 [-]
	 SCS Opposite-Spin Scale   =       1.2000000000000000 [-]
	 SCS Same-Spin Energy      =      -0.2242989840171759 [Eh]
	 SCS Opposite-Spin Energy  =      -2.5402553604817282 [Eh]
	 SCS Correlation Energy    =      -2.7645543444989040 [Eh]
	 SCS Total Energy          =    -616.1347773042538165 [Eh]
	-----------------------------------------------------------



Properties will be evaluated at  -0.000000,   0.000000,   0.000000 [a0]

Properties computed using the MP2 density matrix

  Nuclear Dipole Moment: [e a0]
     X:    -7.3056      Y:     0.5916      Z:     0.6140

  Electronic Dipole Moment: [e a0]
     X:     6.8971      Y:    -0.3054      Z:    -0.4295

  Dipole Moment: [e a0]
     X:    -0.4085      Y:     0.2862      Z:     0.1845     Total:     0.5318

  Dipole Moment: [D]
     X:    -1.0384      Y:     0.7275      Z:     0.4689     Total:     1.3518


*** tstop() called on c418-114.stampede2.tacc.utexas.edu at Sun Mar  7 07:44:20 2021
Module time:
	user time   =    7506.39 seconds =     125.11 minutes
	system time =     147.59 seconds =       2.46 minutes
	total time  =        625 seconds =      10.42 minutes
Total time:
	user time   =    9433.37 seconds =     157.22 minutes
	system time =     242.78 seconds =       4.05 minutes
	total time  =        718 seconds =      11.97 minutes

    Psi4 stopped on: Sunday, 07 March 2021 07:44AM
    Psi4 wall time for execution: 0:12:00.29

*** Psi4 exiting successfully. Buy a developer a beer!
