030_MeBr Gaussian SP Calculation on g2-node38.bme.utexas.edu            
Freq      RMP2-FC                                                     6-31G(d)            
Number of atoms                            I                5
Info1-9                                    I   N=           9
          16          15        1002           0           0         100
           6           2           1
Charge                                     I                0
Multiplicity                               I                1
Number of electrons                        I               44
Number of alpha electrons                  I               22
Number of beta electrons                   I               22
Number of basis functions                  I               51
Number of independent functions            I               51
Number of point charges in /Mol/           I                0
Number of translation vectors              I                0
Atomic numbers                             I   N=           5
          35           6           1           1           1
Nuclear charges                            R   N=           5
  3.50000000E+01  6.00000000E+00  1.00000000E+00  1.00000000E+00  1.00000000E+00
Current cartesian coordinates              R   N=          15
 -7.97066004E-01 -1.64891219E-07  2.33842278E-07  2.89026951E+00  3.05210888E-06
 -4.17428350E-06  3.51857186E+00 -4.19323434E-01  1.91035064E+00  3.51856323E+00
 -1.44476859E+00 -1.31830434E+00  3.51855798E+00  1.86407948E+00 -5.92029432E-01
Force Field                                I                0
Int Atom Types                             I   N=           5
           0           0           0           0           0
MM charges                                 R   N=           5
  0.00000000E+00  0.00000000E+00  0.00000000E+00  0.00000000E+00  0.00000000E+00
Integer atomic weights                     I   N=           5
          79          12           1           1           1
Real atomic weights                        R   N=           5
  7.89183361E+01  1.20000000E+01  1.00782504E+00  1.00782504E+00  1.00782504E+00
Atom fragment info                         I   N=           5
           0           0           0           0           0
Atom residue num                           I   N=           5
           0           0           0           0           0
Nuclear spins                              I   N=           5
           3           0           1           1           1
Nuclear ZEff                               R   N=           5
 -2.45000000E+01 -3.60000000E+00 -1.00000000E+00 -1.00000000E+00 -1.00000000E+00
Nuclear QMom                               R   N=           5
  3.13000000E+01  0.00000000E+00  0.00000000E+00  0.00000000E+00  0.00000000E+00
Nuclear GFac                               R   N=           5
  2.10639900E+00  0.00000000E+00  2.79284600E+00  2.79284600E+00  2.79284600E+00
MicOpt                                     I   N=           5
          -1          -1          -1          -1          -1
Number of contracted shells                I               22
Number of primitive shells                 I               54
Pure/Cartesian d shells                    I                1
Pure/Cartesian f shells                    I                0
Highest angular momentum                   I                2
Largest degree of contraction              I                8
Shell types                                I   N=          22
           0           0           0           0           0           0
           1           1           1           1           2           2
           0          -1          -1           2           0           0
           0           0           0           0
Number of primitives per shell             I   N=          22
           8           2           1           1           1           1
           6           3           1           1           5           1
           6           3           1           1           3           1
           3           1           3           1
Shell to atom map                          I   N=          22
           1           1           1           1           1           1
           1           1           1           1           1           1
           2           2           2           2           3           3
           4           4           5           5
Primitive exponents                        R   N=          54
  5.74300000E+05  8.90700000E+04  2.02100000E+04  5.73600000E+03  1.89900000E+03
  6.98700000E+02  2.77800000E+02  1.15200000E+02  3.59700000E+01  1.55000000E+01
  4.77100000E+00  2.07700000E+00  4.21100000E-01  1.61000000E-01  4.40600000E+03
  1.04200000E+03  3.32100000E+02  1.21900000E+02  4.92400000E+01  2.11600000E+01
  8.83600000E+00  3.82900000E+00  1.64300000E+00  4.65000000E-01  1.42700000E-01
  1.08400000E+02  3.07100000E+01  1.06600000E+01  3.85100000E+00  1.31700000E+00
  3.38000000E-01  3.04752488E+03  4.57369518E+02  1.03948685E+02  2.92101553E+01
  9.28666296E+00  3.16392696E+00  7.86827235E+00  1.88128854E+00  5.44249258E-01
  1.68714478E-01  8.00000000E-01  1.87311370E+01  2.82539436E+00  6.40121692E-01
  1.61277759E-01  1.87311370E+01  2.82539436E+00  6.40121692E-01  1.61277759E-01
  1.87311370E+01  2.82539436E+00  6.40121692E-01  1.61277759E-01
Contraction coefficients                   R   N=          54
  2.10682753E-04  1.61271721E-03  8.36010959E-03  3.40275588E-02  1.08515001E-01
  2.67396944E-01  4.29567221E-01  2.86993117E-01  2.77772914E-01  7.47057636E-01
  1.00000000E+00  1.00000000E+00  1.00000000E+00  1.00000000E+00  1.39552623E-03
  1.23748283E-02  6.10175241E-02  2.26775547E-01  4.05975875E-01  4.50692322E-01
  2.92018585E-01  5.30220862E-01  2.75287404E-01  1.00000000E+00  1.00000000E+00
  2.15879371E-02  1.34176036E-01  3.67870647E-01  4.91895206E-01  2.68321979E-01
  1.00000000E+00  1.83473713E-03  1.40373228E-02  6.88426223E-02  2.32184443E-01
  4.67941348E-01  3.62311985E-01 -1.19332420E-01 -1.60854152E-01  1.14345644E+00
  1.00000000E+00  1.00000000E+00  3.34946043E-02  2.34726953E-01  8.13757326E-01
  1.00000000E+00  3.34946043E-02  2.34726953E-01  8.13757326E-01  1.00000000E+00
  3.34946043E-02  2.34726953E-01  8.13757326E-01  1.00000000E+00
P(S=P) Contraction coefficients            R   N=          54
  0.00000000E+00  0.00000000E+00  0.00000000E+00  0.00000000E+00  0.00000000E+00
  0.00000000E+00  0.00000000E+00  0.00000000E+00  0.00000000E+00  0.00000000E+00
  0.00000000E+00  0.00000000E+00  0.00000000E+00  0.00000000E+00  0.00000000E+00
  0.00000000E+00  0.00000000E+00  0.00000000E+00  0.00000000E+00  0.00000000E+00
  0.00000000E+00  0.00000000E+00  0.00000000E+00  0.00000000E+00  0.00000000E+00
  0.00000000E+00  0.00000000E+00  0.00000000E+00  0.00000000E+00  0.00000000E+00
  0.00000000E+00  0.00000000E+00  0.00000000E+00  0.00000000E+00  0.00000000E+00
  0.00000000E+00  0.00000000E+00  6.89990666E-02  3.16423961E-01  7.44308291E-01
  1.00000000E+00  0.00000000E+00  0.00000000E+00  0.00000000E+00  0.00000000E+00
  0.00000000E+00  0.00000000E+00  0.00000000E+00  0.00000000E+00  0.00000000E+00
  0.00000000E+00  0.00000000E+00  0.00000000E+00  0.00000000E+00
Coordinates of each shell                  R   N=          66
 -7.97066004E-01 -1.64891219E-07  2.33842278E-07 -7.97066004E-01 -1.64891219E-07
  2.33842278E-07 -7.97066004E-01 -1.64891219E-07  2.33842278E-07 -7.97066004E-01
 -1.64891219E-07  2.33842278E-07 -7.97066004E-01 -1.64891219E-07  2.33842278E-07
 -7.97066004E-01 -1.64891219E-07  2.33842278E-07 -7.97066004E-01 -1.64891219E-07
  2.33842278E-07 -7.97066004E-01 -1.64891219E-07  2.33842278E-07 -7.97066004E-01
 -1.64891219E-07  2.33842278E-07 -7.97066004E-01 -1.64891219E-07  2.33842278E-07
 -7.97066004E-01 -1.64891219E-07  2.33842278E-07 -7.97066004E-01 -1.64891219E-07
  2.33842278E-07  2.89026951E+00  3.05210888E-06 -4.17428350E-06  2.89026951E+00
  3.05210888E-06 -4.17428350E-06  2.89026951E+00  3.05210888E-06 -4.17428350E-06
  2.89026951E+00  3.05210888E-06 -4.17428350E-06  3.51857186E+00 -4.19323434E-01
  1.91035064E+00  3.51857186E+00 -4.19323434E-01  1.91035064E+00  3.51856323E+00
 -1.44476859E+00 -1.31830434E+00  3.51856323E+00 -1.44476859E+00 -1.31830434E+00
  3.51855798E+00  1.86407948E+00 -5.92029432E-01  3.51855798E+00  1.86407948E+00
 -5.92029432E-01
Constraint Structure                       R   N=          15
 -7.97066004E-01 -1.64891219E-07  2.33842278E-07  2.89026951E+00  3.05210888E-06
 -4.17428350E-06  3.51857186E+00 -4.19323434E-01  1.91035064E+00  3.51856323E+00
 -1.44476859E+00 -1.31830434E+00  3.51855798E+00  1.86407948E+00 -5.92029432E-01
Num ILSW                                   I              100
ILSW                                       I   N=         100
           0           1           0           0           2           0
           0           0           0           0           0          -1
           0           0           0           0           0           0
           0           0           0           0           1           0
           1           0           0           0           0           0
           0           0      100000           0          -1           0
           0           0           0           0           0           0
           0           0           0           1           1           0
           0           0           1           0           0           0
           0           0           4          40           0           0
           0           0           0           0           0           0
           0           0           0           0           0           0
           0           0           0           0           0           0
           0           0           0           0           0           0
           0           0           0           0           0           0
           0           0           0           0           0           0
           0           0           0           0
Num RLSW                                   I               40
RLSW                                       R   N=          40
  1.00000000E+00  1.00000000E+00  1.00000000E+00  1.00000000E+00  1.00000000E+00
  0.00000000E+00  0.00000000E+00  1.00000000E+00  0.00000000E+00  0.00000000E+00
  0.00000000E+00  0.00000000E+00  1.00000000E+00  0.00000000E+00  0.00000000E+00
  0.00000000E+00  0.00000000E+00  1.00000000E+00  0.00000000E+00  0.00000000E+00
  0.00000000E+00  0.00000000E+00  1.00000000E+00  0.00000000E+00  0.00000000E+00
  0.00000000E+00  0.00000000E+00  1.00000000E+00  0.00000000E+00  0.00000000E+00
  0.00000000E+00  0.00000000E+00  0.00000000E+00  0.00000000E+00  0.00000000E+00
  0.00000000E+00  0.00000000E+00  0.00000000E+00  1.00000000E+00  1.00000000E+00
MxBond                                     I                4
NBond                                      I   N=           5
           1           4           1           1           1
IBond                                      I   N=          20
           2           0           0           0           1           3
           4           5           2           0           0           0
           2           0           0           0           2           0
           0           0
RBond                                      R   N=          20
  1.00000000E+00  0.00000000E+00  0.00000000E+00  0.00000000E+00  1.00000000E+00
  1.00000000E+00  1.00000000E+00  1.00000000E+00  1.00000000E+00  0.00000000E+00
  0.00000000E+00  0.00000000E+00  1.00000000E+00  0.00000000E+00  0.00000000E+00
  0.00000000E+00  1.00000000E+00  0.00000000E+00  0.00000000E+00  0.00000000E+00
Virial Ratio                               R      2.004453877428312E+00
SCF Energy                                 R     -2.609500432666953E+03
MP2 Energy                                 R     -2.609744824634079E+03
Total Energy                               R     -2.609744824634079E+03
Post-SCF wavefunction norm                 R      1.481148453759395E+00
RMS Force                                  R      2.095321700531470E-06
RMS Density                                R      6.200339213702877E-10
External E-field                           R   N=          35
  0.00000000E+00  0.00000000E+00  0.00000000E+00  0.00000000E+00  0.00000000E+00
  0.00000000E+00  0.00000000E+00  0.00000000E+00  0.00000000E+00  0.00000000E+00
  0.00000000E+00  0.00000000E+00  0.00000000E+00  0.00000000E+00  0.00000000E+00
  0.00000000E+00  0.00000000E+00  0.00000000E+00  0.00000000E+00  0.00000000E+00
  0.00000000E+00  0.00000000E+00  0.00000000E+00  0.00000000E+00  0.00000000E+00
  0.00000000E+00  0.00000000E+00  0.00000000E+00  0.00000000E+00  0.00000000E+00
  0.00000000E+00  0.00000000E+00  0.00000000E+00  0.00000000E+00  0.00000000E+00
IOpCl                                      I                0
IROHF                                      I                0
Alpha Orbital Energies                     R   N=          51
 -4.90051280E+02 -6.44638188E+01 -5.86030799E+01 -5.86014172E+01 -5.86014172E+01
 -1.12919965E+01 -9.71241318E+00 -7.46170385E+00 -7.45293384E+00 -7.45293384E+00
 -3.20037061E+00 -3.19629769E+00 -3.19629769E+00 -3.18622041E+00 -3.18622041E+00
 -1.05270856E+00 -8.92463678E-01 -6.12201127E-01 -6.12196615E-01 -5.01340816E-01
 -3.96677492E-01 -3.96677146E-01  1.63224069E-01  2.47552531E-01  2.90454182E-01
  2.90455932E-01  4.36918164E-01  6.17680634E-01  6.17681340E-01  6.35116114E-01
  6.71029169E-01  6.71029287E-01  7.09960236E-01  7.09960809E-01  7.54055193E-01
  8.75267799E-01  8.75272565E-01  1.04704347E+00  1.14180654E+00  1.14181331E+00
  1.21490414E+00  1.45763087E+00  1.83382275E+00  1.98580920E+00  1.98581145E+00
  2.40238905E+00  2.54159873E+00  2.54160108E+00  4.54387480E+00  9.27430626E+00
  7.42235377E+01
Alpha MO coefficients                      R   N=        2601
  9.94925626E-01  3.27405699E-02 -4.40224139E-02 -4.73766983E-02 -2.62047083E-02
 -1.90367930E-02  1.68588455E-05  1.33752318E-11 -1.77247931E-11 -4.45271314E-05
 -4.27438376E-11  6.04948344E-11  1.80379710E-04  2.42444680E-10 -3.39759022E-10
 -5.58101902E-04 -1.23102292E-09  1.66674749E-09  4.37895815E-02  4.37811919E-02
  4.37811918E-02  7.85177652E-11 -1.04657654E-10  1.37999400E-12  1.06520710E-02
  1.07613032E-02  1.07613037E-02 -7.10142762E-10  9.45599225E-10 -9.36916027E-12
 -3.84428780E-07 -1.12292084E-05  3.43079060E-04 -3.67870584E-10  4.74214399E-10
 -6.95475659E-05 -6.03637462E-04  3.72858662E-09 -4.72196612E-09 -1.20090392E-04
 -3.38735193E-05 -3.38723112E-05  2.52102754E-10 -3.30308009E-10 -3.01283759E-11
  2.29741502E-05  4.02667274E-04  2.29733767E-05  4.02666435E-04  2.29727708E-05
  4.02665437E-04 -4.23735210E-01  1.16498298E+00 -2.69832928E-01 -3.64677815E-01
 -2.01661328E-01 -1.51366802E-01  9.94571389E-04  3.34327344E-10 -2.46254030E-10
 -2.38787829E-04 -3.01889429E-10  4.54197167E-10  1.41799575E-03  1.91772439E-09
 -2.69438183E-09 -4.48234543E-03 -9.76276400E-09  1.32205921E-08  3.36070581E-01
  3.35955668E-01  3.35955667E-01  6.55601844E-10 -8.65311094E-10  1.08665344E-11
  8.39428943E-02  8.48085752E-02  8.48085792E-02 -5.58544421E-09  7.43595902E-09
 -7.44628637E-11 -1.00184986E-05 -1.41690737E-05  2.74106464E-03 -2.84432878E-09
  3.65534662E-09 -4.32141654E-04 -4.83022418E-03  2.92580756E-08 -3.70106783E-08
 -1.09054882E-03 -2.78846622E-04 -2.78837338E-04  1.77325255E-09 -2.31074554E-09
 -2.33868156E-10  1.65653829E-04  3.20798050E-03  1.65647818E-04  3.20797417E-03
  1.65643099E-04  3.20796646E-03  3.16699954E-04 -1.74012625E-03  2.37940062E-03
  1.38908598E-03 -7.65601713E-04  8.17802245E-03  9.76776478E-01  6.75817648E-07
 -7.78877318E-07  6.20492754E-02  4.29715487E-08 -4.95824212E-08 -1.84106861E-02
 -1.31211405E-08  1.53846281E-08  8.55774133E-03  8.15872721E-09 -9.93789239E-09
 -2.13826232E-03 -2.21345128E-03 -2.21345090E-03 -1.50018052E-10  2.04242546E-10
 -6.84019443E-12 -2.94602531E-03 -2.79801233E-03 -2.79801485E-03  1.48370421E-09
 -1.86474125E-09  4.56718863E-11 -1.66715273E-04 -2.01432633E-03 -4.95221709E-04
  1.35683635E-09 -1.61523510E-09  2.43721074E-03  5.75965196E-04 -1.07392371E-08
  1.27710881E-08  2.03330126E-03 -5.73030118E-04 -5.73031178E-04  1.90889934E-09
 -2.68832581E-09  1.03957841E-10  1.83744451E-04 -1.69202138E-03  1.83747371E-04
 -1.69202616E-03  1.83749719E-04 -1.69202737E-03 -1.96380887E-10  3.15610971E-10
  4.06448547E-10  2.80848539E-10  5.82660754E-10 -4.61584548E-10 -6.81452785E-07
  9.76857148E-01 -6.97350224E-03 -4.30139257E-08  6.17117776E-02 -4.40542632E-04
  1.19990016E-08 -1.73860221E-02  1.24113810E-04 -5.98064849E-09  7.51504087E-03
 -5.36477479E-05 -3.61319939E-10 -1.26792699E-06  1.26708347E-06  1.80427625E-05
 -1.28798298E-07  1.90404110E-06 -1.05406926E-09  8.58918453E-06 -8.58896588E-06
  2.46639500E-04 -1.76072186E-06 -1.29024097E-05 -1.75623644E-10 -1.39973160E-09
  2.29254117E-11  5.80694210E-05 -4.14623662E-07  4.10143321E-09  1.45123831E-10
 -7.42886403E-04  5.30364958E-06  3.36365136E-10 -3.32496410E-05  3.32494220E-05
 -2.47242147E-05  1.76518410E-07  4.99468646E-05 -6.28752135E-05  1.16767657E-04
 -2.08443417E-04  3.87114540E-04  2.71315412E-04 -5.03883601E-04  3.19740133E-10
 -3.98851876E-10 -9.46564482E-10 -6.28608547E-10 -6.96709208E-10 -6.41060195E-10
  7.74169592E-07  6.97350224E-03  9.76857148E-01  4.88096220E-08  4.40542633E-04
  6.17117775E-02 -1.34136013E-08 -1.24113812E-04 -1.73860218E-02  6.87633826E-09
  5.36476909E-05  7.51504194E-03  8.47674073E-10  1.64984384E-06 -1.64792660E-06
  1.28804867E-07  1.80426216E-05  1.46355512E-06  1.98760404E-09 -1.11729294E-05
  1.11735487E-05  1.76066439E-06  2.46640806E-04 -9.91734969E-06  3.23207867E-10
  2.38060879E-09  5.86048587E-11  4.14487780E-07  5.80735747E-05 -7.29764131E-09
 -3.69915896E-10 -5.30297479E-06 -7.42903157E-04 -6.40230370E-10  4.32570690E-05
 -4.32563555E-05 -1.76480455E-07 -2.47243199E-05  3.83944386E-05  2.76990250E-04
 -5.14403360E-04 -1.92943412E-04  3.58325703E-04 -8.40424074E-05  1.56081462E-04
  8.89153312E-07 -7.50901656E-05  2.42348311E-04 -1.48507639E-04 -9.56692526E-04
  4.65073305E-03  1.28916504E-05  1.09334100E-11 -1.56910842E-11 -4.80642427E-05
 -4.36581678E-11  6.24773817E-11  3.07677316E-04  6.92579171E-10 -9.80972245E-10
  1.72641049E-03 -2.98615666E-09  4.12395981E-09 -1.08514359E-04 -1.37678568E-04
 -1.37679030E-04  4.37998711E-10 -5.98916551E-10  6.45746720E-12 -4.21335324E-04
 -8.63342175E-04 -8.63339044E-04 -3.17193137E-09  4.33150415E-09 -4.60041675E-11
  9.95800864E-01  2.79016060E-02 -6.61427459E-04 -6.20097402E-09  8.17901523E-09
 -1.34984699E-02  9.43497371E-04  2.70844875E-08 -3.57948675E-08 -2.23181041E-03
 -1.65920066E-03 -1.65921654E-03  7.65885596E-10 -1.09722318E-09  2.36431816E-10
  1.06377329E-04  2.33898233E-03  1.06368714E-04  2.33897389E-03  1.06362798E-04
  2.33896659E-03  1.68039037E-01 -9.47467696E-01  8.80252763E-01  1.26508101E+00
  3.02025433E-01  2.20914812E-01 -2.51133434E-03 -1.07621813E-09  1.22352860E-09
  6.16313704E-03  2.69392395E-09 -3.09380444E-09 -1.55389280E-03 -2.35693062E-09
  3.33985257E-09  6.55298449E-03  1.38059852E-08 -1.87044895E-08 -4.47817637E-01
 -4.49864268E-01 -4.49864268E-01  5.84210608E-10 -4.97379341E-10 -2.24627611E-11
 -1.21742227E-01 -1.23100724E-01 -1.23100730E-01  7.87107440E-09 -1.05023482E-08
  1.05171165E-10 -6.53518913E-05  1.70107663E-04 -3.95951273E-03  3.55697296E-09
 -4.50470649E-09  1.14722619E-04  7.07215988E-03 -4.01927974E-08  5.07002439E-08
  1.70333045E-03  3.40161438E-04  3.40149691E-04 -1.70698321E-09  2.17681567E-09
  2.94551456E-10 -1.90840585E-04 -4.62100181E-03 -1.90832902E-04 -4.62099382E-03
 -1.90826824E-04 -4.62098349E-03 -9.92091145E-04  6.10402694E-03 -7.15694120E-03
 -6.80662898E-03 -5.44390469E-04 -4.91087817E-03 -4.33184017E-01 -2.89488890E-07
  3.42540222E-07  1.06180178E+00  7.09601498E-07 -8.39646584E-07  2.05866644E-02
  1.38759552E-08 -1.64852834E-08 -4.60356271E-03 -4.16992502E-09  5.14300804E-09
  6.43308019E-03  1.72341122E-03  1.72341096E-03  3.19228158E-09 -3.74932638E-09
  5.72013016E-12  1.63165740E-03  1.83273699E-03  1.83273794E-03 -8.18004094E-10
  9.66309644E-10 -1.96465365E-11 -5.97350255E-06  7.65940921E-04  9.26253402E-05
 -9.20443201E-10  1.18459344E-09 -8.28233132E-04 -4.83574230E-04  5.18200517E-09
 -6.16499407E-09 -6.25370519E-04  1.95216750E-04  1.95217919E-04 -4.42728327E-10
  6.20978079E-10 -5.09386770E-11 -5.63839545E-05  7.92064657E-04 -5.63850151E-05
  7.92066182E-04 -5.63859212E-05  7.92066243E-04  2.53970126E-10 -1.46926631E-09
  1.52791692E-09  1.75452034E-09  3.70584025E-10  5.68542494E-10  2.90530399E-07
 -4.33372509E-01  1.14533410E-03 -7.12330693E-07  1.06258808E+00 -2.80825004E-03
 -1.23844255E-08  1.84271949E-02 -4.87001249E-05  2.56666724E-09 -3.32917096E-03
  8.79847770E-06 -3.19083162E-09  4.69438457E-07 -4.68318822E-07  2.54565966E-03
 -6.72776947E-06 -7.10670533E-07  2.43060893E-10 -2.06338552E-06  2.06283473E-06
 -1.29073000E-04  3.41131757E-07  3.12814600E-06  4.23633930E-11  4.45555338E-10
 -4.21285204E-11 -1.31539534E-05  3.47877286E-08 -1.11767663E-09  7.95046761E-11
  2.77949321E-04 -7.34706415E-07 -1.35023059E-10  9.44206633E-06 -9.44206809E-06
  3.85498012E-06 -1.01937885E-08 -1.43164524E-05  2.15172001E-05 -4.74303485E-05
  7.30778734E-05 -1.61088112E-04 -9.45939697E-05  2.08518562E-04 -3.32476675E-10
  1.91214857E-09 -2.01112362E-09 -2.20223141E-09 -6.12613422E-10 -3.87824610E-10
 -3.41945697E-07 -1.14533410E-03 -4.33372510E-01  8.38385843E-07  2.80825004E-03
  1.06258808E+00  1.45512162E-08  4.87001202E-05  1.84271943E-02 -3.08603544E-09
 -8.79845419E-06 -3.32917138E-03  3.73795575E-09 -6.13981735E-07  6.12838083E-07
  6.72777136E-06  2.54565934E-03 -5.39210505E-07 -5.10068427E-10  2.70914403E-06
 -2.70868156E-06 -3.41108837E-07 -1.29073721E-04  2.38210039E-06 -7.83708874E-11
 -7.78755555E-10  4.79381872E-11 -3.47440997E-08 -1.31555532E-05  2.17347978E-09
 -4.61406557E-11  7.34465009E-07  2.77956999E-04  2.09155823E-10 -1.23990508E-05
  1.23989447E-05  1.01824751E-08  3.85501009E-06 -1.09032374E-05 -9.68059117E-05
  2.13386254E-04  6.70362714E-05 -1.47768496E-04  2.97680812E-05 -6.56185798E-05
 -4.31533973E-04  2.84621668E-03 -3.69819071E-03 -4.15880461E-03  3.95682315E-03
 -3.71966214E-03  1.35441366E-03  1.16718834E-09 -1.44858488E-09 -3.47682736E-03
 -3.03793389E-09  3.79528478E-09  3.21440938E-04  7.66702262E-10 -1.16298017E-09
 -2.28373680E-03 -2.63954425E-09  3.67448988E-09  9.98653923E-01 -4.96962862E-01
 -4.96962689E-01  1.16713542E-06 -1.39145235E-06  2.51412811E-09  1.31604100E-02
 -6.98318282E-03 -6.98317948E-03  1.50958749E-08 -1.76975469E-08  2.71830462E-11
 -9.97177930E-04 -8.33810833E-04 -3.07536657E-03 -3.63422265E-09  5.17846100E-09
  2.62666616E-03 -2.39828368E-03 -9.72215299E-11  2.11382362E-10  3.63937769E-03
 -1.55129607E-04 -1.55129943E-04  4.38555325E-09 -6.16457385E-09  1.65062810E-11
  4.14206486E-05  5.81891458E-05  4.14198956E-05  5.81862083E-05  4.14193605E-05
  5.81842038E-05 -3.52630176E-13  1.31704819E-11  1.00021306E-10 -5.03488456E-10
  1.92328784E-09 -2.24482625E-09 -8.44494519E-10  1.15280641E-03 -9.74777864E-06
  2.14700990E-09 -3.03408602E-03  2.56553032E-05  8.33006028E-10  9.01317477E-04
 -7.62125145E-06 -1.95428367E-10 -5.35961842E-04  4.53188031E-06 -1.17882193E-06
  3.01161957E-04 -2.99983096E-04  9.97063123E-01 -8.43086474E-03 -4.50200783E-04
 -1.59166802E-08  1.03169081E-05 -1.02985818E-05  1.43026018E-02 -1.20938510E-04
 -1.54408641E-05  3.68758751E-10  2.31005802E-09 -5.97985813E-10  2.40255604E-04
 -2.03155578E-06 -1.33378333E-08 -4.44933875E-09  1.02289624E-03 -8.64877524E-06
  3.12285023E-09  4.10845919E-05 -4.10840754E-05 -5.94024400E-04  5.02291658E-06
 -6.15483404E-05  2.37627263E-05  1.54519115E-04  7.82283518E-05  5.08682411E-04
 -1.01989412E-04 -6.63187899E-04  4.16689844E-13  5.51877241E-11 -4.09996152E-10
  8.19453992E-10 -3.30013935E-09  4.12813472E-09  9.28203406E-10  9.74778490E-06
  1.15280612E-03 -2.33781099E-09 -2.56553212E-05 -3.03408523E-03 -1.56323724E-09
  7.62127795E-06  9.01316380E-04  9.96014635E-10 -4.53194660E-06 -5.35957530E-04
  1.38159705E-06 -3.89389386E-04  3.88008071E-04  8.43086482E-03  9.97063124E-01
 -3.45882366E-04  1.85830739E-08 -1.33653518E-05  1.33431704E-05  1.20938477E-04
  1.43026042E-02 -1.18846490E-05 -2.93606941E-10 -2.74505647E-09  1.32137831E-09
  2.03152876E-06  2.40258761E-04  1.66424820E-08  6.57204345E-09  8.64951916E-06
  1.02285962E-03 -4.86716320E-09 -5.33028120E-05  5.33021543E-05 -5.02288000E-06
 -5.94026113E-04 -4.74401607E-05 -1.04043129E-04 -6.76561164E-04  7.25982060E-05
  4.72080972E-04  3.14429552E-05  2.04462280E-04 -1.49981957E-10  9.52240388E-10
 -1.04389990E-09 -1.77045104E-09  1.80511621E-09 -1.28676415E-09  2.37506148E-10
 -6.04724354E-08 -2.92234565E-06 -6.63961433E-10  2.04238383E-07  9.87030153E-06
  8.42589979E-10 -6.71993811E-07 -3.24750376E-05 -4.54580420E-10  4.17647253E-07
  2.01873983E-05  7.81983274E-08  6.77443140E-01 -6.77443216E-01  1.16831369E-05
  5.66195943E-04  6.18332476E-01  9.91834828E-10  9.73241198E-03 -9.73241188E-03
  3.06748883E-07  1.48514800E-05  8.88320461E-03  6.25392479E-12  2.04071361E-11
 -7.59755231E-11 -3.07427498E-07 -1.48590119E-05 -1.44091465E-09 -6.94789800E-10
  4.73580514E-07  2.28946222E-05  3.64434220E-10  1.18934784E-05 -1.18929481E-05
 -1.40381346E-07 -6.78832087E-06  1.08554689E-05  4.62837620E-05 -3.63915116E-05
 -3.28139039E-05  2.58014505E-05 -1.34712291E-05  1.05927525E-05  1.20755496E-10
 -7.69201120E-10  8.54123272E-10  1.40663422E-09 -1.39008652E-09  9.72645433E-10
 -1.88170121E-10 -2.92183143E-06  6.04321062E-08  5.25067024E-10  9.86891020E-06
 -2.04127091E-07 -6.45170914E-10 -3.24751949E-05  6.71699406E-07  3.51233643E-10
  2.01871968E-05 -4.17624607E-07 -6.50907662E-08 -5.35491599E-01  5.35491663E-01
  5.68007834E-04 -1.17814391E-05  7.82244002E-01 -8.21042011E-10 -7.69308087E-03
  7.69308090E-03  1.48764718E-05 -3.08267190E-07  1.12380213E-02  4.93948166E-12
 -2.83962679E-12  7.70841415E-11 -1.48591380E-05  3.07385915E-07  1.01755887E-09
  5.35212303E-10  2.28942622E-05 -4.73706965E-07 -2.93957030E-10 -9.40117099E-06
  9.40078328E-06 -6.78774223E-06  1.40482282E-07  1.37329156E-05 -1.11670048E-05
  8.78000864E-06 -3.44987909E-05  2.71251649E-05  4.56668310E-05 -3.59071545E-05
  3.47307814E-02 -2.24057568E-01  2.49729447E-01  4.82594622E-01 -3.93323989E-01
 -2.39126238E-01 -1.71399412E-02 -1.38484119E-08  2.00484926E-08  5.22118077E-02
  4.22311046E-08 -6.11752069E-08 -8.66193730E-02 -6.81549771E-08  9.92626406E-08
 -3.18987171E-02 -5.93175098E-08  8.45402335E-08 -9.89504549E-02 -1.24602189E-01
 -1.24602206E-01  2.62435170E-08 -3.67294597E-08  1.87415940E-10 -7.90582361E-02
 -3.41841836E-02 -3.41841274E-02 -6.72191356E-08  9.32985257E-08 -6.56788017E-10
  1.38497764E-01 -2.60282779E-01  3.78068485E-02  1.35636425E-07 -1.30895268E-07
 -2.44788903E-01  1.00194907E-02  2.34658787E-07 -3.10675966E-07 -9.26226530E-03
 -6.49998672E-03 -6.49942455E-03  5.29516022E-08 -7.16571994E-08 -6.32625065E-09
 -8.62216239E-02 -1.59246061E-02 -8.62220138E-02 -1.59247423E-02 -8.62222259E-02
 -1.59248306E-02  3.50098769E-02 -2.26984626E-01  2.54858987E-01  4.92830881E-01
 -3.88718833E-01 -3.41411611E-01  1.06595035E-02  9.67411117E-10 -2.11302885E-09
 -3.26872735E-02 -2.83802793E-09  6.25216104E-09  5.47470083E-02 -3.55856203E-09
  1.76613610E-09  2.15714705E-02  5.33502853E-08 -7.39464103E-08 -1.24026398E-01
 -1.15697099E-01 -1.15697096E-01 -3.49367936E-09  6.49757834E-09 -9.82389214E-11
 -2.94059174E-02 -4.06588425E-02 -4.06588387E-02  3.33865052E-08 -4.71259096E-08
  2.42132205E-10 -1.35546437E-01  2.61828260E-01  1.20958879E-01 -2.31385387E-07
  2.20797114E-07  2.88602138E-01  4.54998604E-02 -3.66415342E-07  4.72476850E-07
 -1.32149267E-02  1.47570546E-02  1.47563566E-02 -1.26541472E-07  1.71708144E-07
  7.76832873E-09  1.20472385E-01  3.56883136E-02  1.20472664E-01  3.56884737E-02
  1.20472784E-01  3.56885739E-02  5.06847731E-08 -3.27093638E-07  3.64851902E-07
  7.30294747E-07 -5.89162650E-07 -6.99371589E-07  1.70237123E-07  2.27695628E-02
  2.10899038E-04 -5.24097768E-07 -7.01896338E-02 -6.50119035E-04  9.22791886E-07
  1.25133864E-01  1.15903000E-03  6.66063029E-07  7.70011444E-02  7.13211517E-04
 -2.37937707E-07 -3.97826259E-04  3.97562433E-04 -1.18385808E-02 -1.09653024E-04
  6.18132562E-04  2.19521991E-07  1.04160296E-03 -1.04181212E-03  1.88427272E-02
  1.74529446E-04 -1.61911608E-03 -3.15041650E-07  9.54122790E-07 -1.12744141E-06
  4.43566566E-01  4.10845553E-03 -6.10547144E-08 -5.75274507E-07  2.26438088E-01
  2.09732604E-03  1.90223512E-08  1.55257644E-02 -1.55258363E-02  1.51850531E-02
  1.40644637E-04 -2.41316019E-02 -5.39372708E-02 -3.77396537E-02 -1.95667623E-01
 -1.36907852E-01  2.49604100E-01  1.74647081E-01 -6.93797347E-08  4.47383119E-07
 -4.98336402E-07 -9.99718931E-07  8.05710165E-07  9.67922141E-07 -2.32093093E-07
 -2.10903124E-04  2.27701118E-02  7.14487965E-07  6.50131701E-04 -7.01913329E-02
 -1.25647785E-06 -1.15905348E-03  1.25136942E-01 -9.06349951E-07 -7.13229241E-04
  7.70038721E-02  3.24579290E-07  5.35488197E-04 -5.35127795E-04  1.09652629E-04
 -1.18386522E-02  4.59209456E-04 -3.00020896E-07 -1.40204361E-03  1.40232579E-03
 -1.74527273E-04  1.88430215E-02 -1.20285224E-03  4.09292701E-07 -1.28291971E-06
  1.62057704E-06 -4.10842922E-03  4.43565585E-01  2.06559872E-07  8.39643699E-07
 -2.09735694E-03  2.26438876E-01 -1.53787203E-08 -2.08988881E-02  2.08989863E-02
 -1.40650903E-04  1.51848897E-02 -1.79279754E-02  2.57077264E-01  1.79879483E-01
 -1.75248724E-01 -1.22623336E-01 -8.18273945E-02 -5.72554867E-02  9.40479987E-03
 -6.16250758E-02  7.05661751E-02  1.37047510E-01 -7.57937608E-02 -2.42847842E-01
  8.51883296E-02 -5.33534928E-08  7.40693057E-08 -2.62865997E-01  1.64818960E-07
 -2.28741001E-07  4.72421364E-01 -2.87332627E-07  3.97788195E-07  3.20208550E-01
 -2.91202589E-07  4.02867452E-07 -5.87643794E-02 -1.93439398E-02 -1.93439543E-02
  2.07656801E-09 -5.20325036E-09  9.24542769E-11  8.25296372E-02 -1.96151327E-02