
    -----------------------------------------------------------------------
          Psi4: An Open-Source Ab Initio Electronic Structure Package
                               Psi4 1.3.2 release

                         Git: Rev {HEAD} ecbda83 


    R. M. Parrish, L. A. Burns, D. G. A. Smith, A. C. Simmonett,
    A. E. DePrince III, E. G. Hohenstein, U. Bozkaya, A. Yu. Sokolov,
    R. Di Remigio, R. M. Richard, J. F. Gonthier, A. M. James,
    H. R. McAlexander, A. Kumar, M. Saitow, X. Wang, B. P. Pritchard,
    P. Verma, H. F. Schaefer III, K. Patkowski, R. A. King, E. F. Valeev,
    F. A. Evangelista, J. M. Turney, T. D. Crawford, and C. D. Sherrill,
    J. Chem. Theory Comput. 13(7) pp 3185--3197 (2017).
    (doi: 10.1021/acs.jctc.7b00174)


                         Additional Contributions by
    P. Kraus, H. Kruse, M. H. Lechner, M. C. Schieber, R. A. Shaw,
    A. Alenaizan, R. Galvelis, Z. L. Glick, S. Lehtola, and J. P. Misiewicz

    -----------------------------------------------------------------------


    Psi4 started on: Monday, 01 February 2021 11:14PM

    Process ID: 3235739
    Host:       node88.bme.utexas.edu
    PSIDATADIR: /home/xy3866/psi4conda/share/psi4
    Memory:     500.0 MiB
    Threads:    8
    
  ==> Input File <==

--------------------------------------------------------------------------
#psi4
#
memory 32 gb

molecule  {
0 1
  O       -0.5333209    -0.8357361    -0.0079354
  O        0.1289150     1.3564030    -0.0013430
  O       -1.8621010    -0.2365450     0.0068560
  C        1.7937210    -0.4249780     0.0036230
  C        0.4181520     0.1698940    -0.0073790
  H        2.2615610    -0.2048250     0.9659560
  H        1.7606640    -1.5032570    -0.1498870
  H        2.3854820     0.0509630    -0.7800310
  H       -1.6289270     0.7283940     0.0063510
units angstrom
no_reorient  #important for SAPT in psi4, default
symmetry c1  #important for SAPT in psi4, default
}

set PROPERTIES_ORIGIN ["COM"]
properties('MP2/aug-cc-pvtz', properties = ['dipole'])
--------------------------------------------------------------------------

  Memory set to  29.802 GiB by Python driver.
    SCF Algorithm Type (re)set to DF.

*** tstart() called on node88.bme.utexas.edu
*** at Mon Feb  1 23:14:41 2021

   => Loading Basis Set <=

    Name: AUG-CC-PVTZ
    Role: ORBITAL
    Keyword: BASIS
    atoms 1-3 entry O          line   327 file /home/xy3866/psi4conda/share/psi4/basis/aug-cc-pvtz.gbs 
    atoms 4-5 entry C          line   235 file /home/xy3866/psi4conda/share/psi4/basis/aug-cc-pvtz.gbs 
    atoms 6-9 entry H          line    36 file /home/xy3866/psi4conda/share/psi4/basis/aug-cc-pvtz.gbs 


         ---------------------------------------------------------
                                   SCF
               by Justin Turney, Rob Parrish, Andy Simmonett
                          and Daniel G. A. Smith
                              RHF Reference
                        8 Threads,  30517 MiB Core
         ---------------------------------------------------------

  ==> Geometry <==

    Molecular point group: c1
    Full point group: C1

    Geometry (in Angstrom), charge = 0, multiplicity = 1:

       Center              X                  Y                   Z               Mass       
    ------------   -----------------  -----------------  -----------------  -----------------
         O           -0.468940619392    -0.842938595687    -0.007394759055    15.994914619570
         O            0.193295280608     1.349200504313    -0.000802359055    15.994914619570
         O           -1.797720719392    -0.243747495687     0.007396640945    15.994914619570
         C            1.858101280608    -0.432180495687     0.004163640945    12.000000000000
         C            0.482532280608     0.162691504313    -0.006838359055    12.000000000000
         H            2.325941280608    -0.212027495687     0.966496640945     1.007825032230
         H            1.825044280608    -1.510459495687    -0.149346359055     1.007825032230
         H            2.449862280608     0.043760504313    -0.779490359055     1.007825032230
         H           -1.564546719392     0.721191504313     0.006891640945     1.007825032230

  Running in c1 symmetry.

  Rotational constants: A =      0.35008  B =      0.14140  C =      0.10265 [cm^-1]
  Rotational constants: A =  10495.14604  B =   4238.96524  C =   3077.48434 [MHz]
  Nuclear repulsion =  179.779164524768788

  Charge       = 0
  Multiplicity = 1
  Electrons    = 40
  Nalpha       = 20
  Nbeta        = 20

  ==> Algorithm <==

  SCF Algorithm Type is DF.
  DIIS enabled.
  MOM disabled.
  Fractional occupation disabled.
  Guess Type is SAD.
  Energy threshold   = 1.00e-10
  Density threshold  = 1.00e-10
  Integral threshold = 0.00e+00

  ==> Primary Basis <==

  Basis Set: AUG-CC-PVTZ
    Blend: AUG-CC-PVTZ
    Number of shells: 106
    Number of basis function: 322
    Number of Cartesian functions: 375
    Spherical Harmonics?: true
    Max angular momentum: 3

   => Loading Basis Set <=

    Name: (AUG-CC-PVTZ AUX)
    Role: JKFIT
    Keyword: DF_BASIS_SCF
    atoms 1-3 entry O          line   286 file /home/xy3866/psi4conda/share/psi4/basis/aug-cc-pvtz-jkfit.gbs 
    atoms 4-5 entry C          line   162 file /home/xy3866/psi4conda/share/psi4/basis/aug-cc-pvtz-jkfit.gbs 
    atoms 6-9 entry H          line    70 file /home/xy3866/psi4conda/share/psi4/basis/aug-cc-pvtz-jkfit.gbs 

  ==> Pre-Iterations <==

   -------------------------------------------------------
    Irrep   Nso     Nmo     Nalpha   Nbeta   Ndocc  Nsocc
   -------------------------------------------------------
     A        322     322       0       0       0       0
   -------------------------------------------------------
    Total     322     322      20      20      20       0
   -------------------------------------------------------

  ==> Integral Setup <==

  DFHelper Memory: AOs need 0.567 GiB; user supplied 22.352 GiB. Using in-core AOs.

  ==> MemDFJK: Density-Fitted J/K Matrices <==

    J tasked:                   Yes
    K tasked:                   Yes
    wK tasked:                   No
    OpenMP threads:               8
    Memory [MiB]:             22888
    Algorithm:                 Core
    Schwarz Cutoff:           1E-12
    Mask sparsity (%):       1.4525
    Fitting Condition:        1E-10

   => Auxiliary Basis Set <=

  Basis Set: (AUG-CC-PVTZ AUX)
    Blend: AUG-CC-PVTZ-JKFIT
    Number of shells: 206
    Number of basis function: 704
    Number of Cartesian functions: 875
    Spherical Harmonics?: true
    Max angular momentum: 4

  Minimum eigenvalue in the overlap matrix is 1.6771455542E-05.
  Using Symmetric Orthogonalization.

  SCF Guess: Superposition of Atomic Densities via on-the-fly atomic UHF.

  ==> Iterations <==

                           Total Energy        Delta E     RMS |[F,P]|

   @DF-RHF iter SAD:  -301.46975617490023   -3.01470e+02   0.00000e+00 
   @DF-RHF iter   1:  -302.51912886462821   -1.04937e+00   1.83610e-03 DIIS
   @DF-RHF iter   2:  -302.62518152281376   -1.06053e-01   1.19741e-03 DIIS
   @DF-RHF iter   3:  -302.67361418304819   -4.84327e-02   2.51420e-04 DIIS
   @DF-RHF iter   4:  -302.67713730735846   -3.52312e-03   8.98128e-05 DIIS
   @DF-RHF iter   5:  -302.67774915796235   -6.11851e-04   2.38130e-05 DIIS
   @DF-RHF iter   6:  -302.67780695274035   -5.77948e-05   1.23388e-05 DIIS
   @DF-RHF iter   7:  -302.67782215121156   -1.51985e-05   4.31909e-06 DIIS
   @DF-RHF iter   8:  -302.67782458493332   -2.43372e-06   1.55896e-06 DIIS
   @DF-RHF iter   9:  -302.67782496891743   -3.83984e-07   5.44412e-07 DIIS
   @DF-RHF iter  10:  -302.67782500296539   -3.40480e-08   1.83811e-07 DIIS
   @DF-RHF iter  11:  -302.67782500718062   -4.21522e-09   6.19301e-08 DIIS
   @DF-RHF iter  12:  -302.67782500772029   -5.39671e-10   2.16928e-08 DIIS
   @DF-RHF iter  13:  -302.67782500778600   -6.57110e-11   7.48391e-09 DIIS
   @DF-RHF iter  14:  -302.67782500779492   -8.92442e-12   2.33777e-09 DIIS
   @DF-RHF iter  15:  -302.67782500779617   -1.25056e-12   9.26473e-10 DIIS
   @DF-RHF iter  16:  -302.67782500779578    3.97904e-13   3.55700e-10 DIIS
   @DF-RHF iter  17:  -302.67782500779560    1.70530e-13   1.33422e-10 DIIS
   @DF-RHF iter  18:  -302.67782500779526    3.41061e-13   8.21059e-11 DIIS
  Energy and wave function converged.


  ==> Post-Iterations <==

    Orbital Energies [Eh]
    ---------------------

    Doubly Occupied:                                                      

       1A    -20.675905     2A    -20.646270     3A    -20.582907  
       4A    -11.418707     5A    -11.266987     6A     -1.524793  
       7A     -1.408477     8A     -1.259004     9A     -1.036478  
      10A     -0.830453    11A     -0.740369    12A     -0.694387  
      13A     -0.692172    14A     -0.617267    15A     -0.611435  
      16A     -0.597216    17A     -0.570315    18A     -0.536572  
      19A     -0.489184    20A     -0.476648  

    Virtual:                                                              

      21A      0.025587    22A      0.042603    23A      0.044026  
      24A      0.046075    25A      0.076161    26A      0.099956  
      27A      0.102821    28A      0.118578    29A      0.120942  
      30A      0.126396    31A      0.132834    32A      0.137217  
      33A      0.150552    34A      0.172490    35A      0.177082  
      36A      0.189170    37A      0.201174    38A      0.206418  
      39A      0.211445    40A      0.222216    41A      0.227489  
      42A      0.245308    43A      0.259470    44A      0.260386  
      45A      0.275036    46A      0.285444    47A      0.308308  
      48A      0.313765    49A      0.323527    50A      0.329219  
      51A      0.332794    52A      0.343669    53A      0.351266  
      54A      0.362998    55A      0.372489    56A      0.376239  
      57A      0.404399    58A      0.412199    59A      0.417837  
      60A      0.437407    61A      0.440939    62A      0.445084  
      63A      0.465862    64A      0.471016    65A      0.480048  
      66A      0.489111    67A      0.500418    68A      0.504815  
      69A      0.509938    70A      0.523911    71A      0.545847  
      72A      0.558011    73A      0.576294    74A      0.617451  
      75A      0.630131    76A      0.651557    77A      0.680087  
      78A      0.696869    79A      0.719521    80A      0.739949  
      81A      0.758554    82A      0.771097    83A      0.791026  
      84A      0.797308    85A      0.820628    86A      0.824336  
      87A      0.834056    88A      0.844452    89A      0.849108  
      90A      0.862980    91A      0.874813    92A      0.880157  
      93A      0.887907    94A      0.892620    95A      0.920412  
      96A      0.930590    97A      0.937767    98A      0.952734  
      99A      0.958721   100A      0.964886   101A      0.982628  
     102A      0.988600   103A      0.997059   104A      1.005963  
     105A      1.023773   106A      1.034063   107A      1.070115  
     108A      1.072058   109A      1.092988   110A      1.099327  
     111A      1.113406   112A      1.124769   113A      1.145448  
     114A      1.152074   115A      1.188348   116A      1.189239  
     117A      1.196471   118A      1.209655   119A      1.217953  
     120A      1.238051   121A      1.253201   122A      1.276932  
     123A      1.283870   124A      1.299083   125A      1.337358  
     126A      1.355768   127A      1.360721   128A      1.386205  
     129A      1.431294   130A      1.441793   131A      1.457187  
     132A      1.490334   133A      1.500639   134A      1.525534  
     135A      1.532769   136A      1.543341   137A      1.555684  
     138A      1.567101   139A      1.599994   140A      1.613984  
     141A      1.625217   142A      1.640291   143A      1.649524  
     144A      1.669728   145A      1.675512   146A      1.728028  
     147A      1.746950   148A      1.756244   149A      1.788178  
     150A      1.820265   151A      1.839455   152A      1.882500  
     153A      1.891555   154A      1.905230   155A      1.930943  
     156A      1.947333   157A      1.967503   158A      1.989236  
     159A      2.035670   160A      2.070589   161A      2.084884  
     162A      2.128754   163A      2.158283   164A      2.172287  
     165A      2.214419   166A      2.217754   167A      2.254027  
     168A      2.274529   169A      2.296017   170A      2.321554  
     171A      2.377906   172A      2.398972   173A      2.406354  
     174A      2.420083   175A      2.457568   176A      2.472275  
     177A      2.499783   178A      2.533784   179A      2.555264  
     180A      2.566087   181A      2.582719   182A      2.592002  
     183A      2.633174   184A      2.663373   185A      2.711635  
     186A      2.723805   187A      2.753254   188A      2.778035  
     189A      2.788371   190A      2.819532   191A      2.840335  
     192A      2.855585   193A      2.903132   194A      2.920564  
     195A      2.943492   196A      2.970932   197A      2.995941  
     198A      3.043460   199A      3.088333   200A      3.114821  
     201A      3.187960   202A      3.217181   203A      3.232995  
     204A      3.274289   205A      3.297298   206A      3.308967  
     207A      3.355033   208A      3.421752   209A      3.460819  
     210A      3.501071   211A      3.527682   212A      3.537792  
     213A      3.551364   214A      3.564752   215A      3.593660  
     216A      3.673754   217A      3.706614   218A      3.733375  
     219A      3.789756   220A      3.838613   221A      3.858824  
     222A      3.903823   223A      3.912529   224A      3.923846  
     225A      3.954580   226A      4.006122   227A      4.015999  
     228A      4.052905   229A      4.069860   230A      4.074826  
     231A      4.102401   232A      4.154703   233A      4.163235  
     234A      4.243282   235A      4.273982   236A      4.300853  
     237A      4.329679   238A      4.362977   239A      4.374197  
     240A      4.414941   241A      4.429305   242A      4.450382  
     243A      4.476832   244A      4.542355   245A      4.626871  
     246A      4.660044   247A      4.680549   248A      4.751606  
     249A      4.754332   250A      4.769989   251A      4.780630  
     252A      4.826593   253A      4.850844   254A      4.959917  
     255A      5.000601   256A      5.020888   257A      5.028465  
     258A      5.090658   259A      5.117867   260A      5.202972  
     261A      5.226926   262A      5.238611   263A      5.273558  
     264A      5.303608   265A      5.357335   266A      5.374982  
     267A      5.443467   268A      5.586574   269A      5.628317  
     270A      5.643962   271A      5.724178   272A      5.785818  
     273A      5.983924   274A      6.026630   275A      6.082783  
     276A      6.132455   277A      6.181714   278A      6.340973  
     279A      6.378447   280A      6.415862   281A      6.463681  
     282A      6.643587   283A      6.682087   284A      6.715081  
     285A      6.764497   286A      6.805280   287A      6.836399  
     288A      6.861693   289A      6.890611   290A      6.899343  
     291A      6.997015   292A      7.016714   293A      7.088183  
     294A      7.121268   295A      7.140391   296A      7.185473  
     297A      7.201509   298A      7.213290   299A      7.230402  
     300A      7.305784   301A      7.313170   302A      7.340548  
     303A      7.356347   304A      7.428596   305A      7.466001  
     306A      7.503753   307A      7.621286   308A      7.689709  
     309A      7.715512   310A      7.719841   311A      7.792009  
     312A      7.843043   313A      7.949298   314A      8.037274  
     315A      8.273800   316A      8.435510   317A      8.779086  
     318A     13.895937   319A     15.163452   320A     15.470833  
     321A     17.005847   322A     19.004892  

    Final Occupation by Irrep:
              A 
    DOCC [    20 ]

  @DF-RHF Final Energy:  -302.67782500779526

   => Energetics <=

    Nuclear Repulsion Energy =            179.7791645247687882
    One-Electron Energy =                -771.5628847460101269
    Two-Electron Energy =                 289.1058952134460469
    Total Energy =                       -302.6778250077952634

Computation Completed

*** tstop() called on node88.bme.utexas.edu at Mon Feb  1 23:14:46 2021
Module time:
	user time   =      30.49 seconds =       0.51 minutes
	system time =       1.14 seconds =       0.02 minutes
	total time  =          5 seconds =       0.08 minutes
Total time:
	user time   =      30.49 seconds =       0.51 minutes
	system time =       1.14 seconds =       0.02 minutes
	total time  =          5 seconds =       0.08 minutes
   => Loading Basis Set <=

    Name: (AUG-CC-PVTZ AUX)
    Role: RIFIT
    Keyword: DF_BASIS_MP2
    atoms 1-3 entry O          line   264 file /home/xy3866/psi4conda/share/psi4/basis/aug-cc-pvtz-ri.gbs 
    atoms 4-5 entry C          line   148 file /home/xy3866/psi4conda/share/psi4/basis/aug-cc-pvtz-ri.gbs 
    atoms 6-9 entry H          line    30 file /home/xy3866/psi4conda/share/psi4/basis/aug-cc-pvtz-ri.gbs 


*** tstart() called on node88.bme.utexas.edu
*** at Mon Feb  1 23:14:46 2021


  //>>>>>>>>>>>>>>>>>>>>>>>>>>>>>>>>>>>//
  //               DFMP2               //
  //<<<<<<<<<<<<<<<<<<<<<<<<<<<<<<<<<<<//

	 --------------------------------------------------------
	                          DF-MP2                         
	      2nd-Order Density-Fitted Moller-Plesset Theory     
	              RMP2 Wavefunction,   8 Threads             
	                                                         
	        Rob Parrish, Justin Turney, Andy Simmonett,      
	           Ed Hohenstein, and C. David Sherrill          
	 --------------------------------------------------------

   => Auxiliary Basis Set <=

  Basis Set: (AUG-CC-PVTZ AUX)
    Blend: AUG-CC-PVTZ-RI
    Number of shells: 196
    Number of basis function: 714
    Number of Cartesian functions: 900
    Spherical Harmonics?: true
    Max angular momentum: 4

	 --------------------------------------------------------
	                 NBF =   322, NAUX =   714
	 --------------------------------------------------------
	   CLASS    FOCC     OCC    AOCC    AVIR     VIR    FVIR
	   PAIRS       0      20      20     302     302       0
	 --------------------------------------------------------

  DFHelper Memory: AOs need 0.567 GiB; user supplied 22.352 GiB. Using in-core AOs.


         ------------------------------------------------------------
                                     CPHF                           
                                  Rob Parrish                       
         ------------------------------------------------------------

  ==> Geometry <==

    Molecular point group: c1
    Full point group: C1

    Geometry (in Angstrom), charge = 0, multiplicity = 1:

       Center              X                  Y                   Z               Mass       
    ------------   -----------------  -----------------  -----------------  -----------------
         O           -0.468940619392    -0.842938595687    -0.007394759055    15.994914619570
         O            0.193295280608     1.349200504313    -0.000802359055    15.994914619570
         O           -1.797720719392    -0.243747495687     0.007396640945    15.994914619570
         C            1.858101280608    -0.432180495687     0.004163640945    12.000000000000
         C            0.482532280608     0.162691504313    -0.006838359055    12.000000000000
         H            2.325941280608    -0.212027495687     0.966496640945     1.007825032230
         H            1.825044280608    -1.510459495687    -0.149346359055     1.007825032230
         H            2.449862280608     0.043760504313    -0.779490359055     1.007825032230
         H           -1.564546719392     0.721191504313     0.006891640945     1.007825032230

  Nuclear repulsion =  179.779164524768788
  Reference energy  = -302.677825007795263

  ==> Basis Set <==

  Basis Set: AUG-CC-PVTZ
    Blend: AUG-CC-PVTZ
    Number of shells: 106
    Number of basis function: 322
    Number of Cartesian functions: 375
    Spherical Harmonics?: true
    Max angular momentum: 3

  ==> CGRSolver (by Rob Parrish) <==

   Number of roots    =         1
   Preconditioning    =    JACOBI
   Convergence cutoff =     1E-06
   Maximum iterations =       100

  ==> CPHFRHamiltonian (by Rob Parrish) <== 

  ==> MemDFJK: Density-Fitted J/K Matrices <==

    J tasked:                   Yes
    K tasked:                   Yes
    wK tasked:                   No
    OpenMP threads:               8
    Memory [MiB]:             22888
    Algorithm:                 Core
    Schwarz Cutoff:           1E-12
    Mask sparsity (%):       1.4525
    Fitting Condition:        1E-10

   => Auxiliary Basis Set <=

  Basis Set: (AUG-CC-PVTZ AUX)
    Blend: AUG-CC-PVTZ-JKFIT
    Number of shells: 206
    Number of basis function: 704
    Number of Cartesian functions: 875
    Spherical Harmonics?: true
    Max angular momentum: 4

  ==> CPHF Iterations <==

  => Iterations <=

             Iter  Converged  Remaining    Residual
  CGR           1          0          1   1.227E-01
  CGR           2          0          1   3.593E-02
  CGR           3          0          1   1.557E-02
  CGR           4          0          1   5.101E-03
  CGR           5          0          1   2.066E-03
  CGR           6          0          1   6.342E-04
  CGR           7          0          1   2.586E-04
  CGR           8          0          1   7.153E-05
  CGR           9          0          1   1.796E-05
  CGR          10          0          1   5.472E-06
  CGR          11          0          1   1.758E-06
  CGR          12          1          0   6.018E-07

    CGRSolver converged.

	-----------------------------------------------------------
	 ==================> DF-MP2 Energies <==================== 
	-----------------------------------------------------------
	 Reference Energy          =    -302.6778250077952634 [Eh]
	 Singles Energy            =      -0.0000000000000000 [Eh]
	 Same-Spin Energy          =      -0.2841243615368318 [Eh]
	 Opposite-Spin Energy      =      -0.8674170191024452 [Eh]
	 Correlation Energy        =      -1.1515413806392769 [Eh]
	 Total Energy              =    -303.8293663884345506 [Eh]
	-----------------------------------------------------------
	 ================> DF-SCS-MP2 Energies <================== 
	-----------------------------------------------------------
	 SCS Same-Spin Scale       =       0.3333333333333333 [-]
	 SCS Opposite-Spin Scale   =       1.2000000000000000 [-]
	 SCS Same-Spin Energy      =      -0.0947081205122773 [Eh]
	 SCS Opposite-Spin Energy  =      -1.0409004229229342 [Eh]
	 SCS Correlation Energy    =      -1.1356085434352114 [Eh]
	 SCS Total Energy          =    -303.8134335512305029 [Eh]
	-----------------------------------------------------------



Properties will be evaluated at  -0.000000,   0.000000,  -0.000000 [a0]

Properties computed using the MP2 density matrix

  Nuclear Dipole Moment: [e a0]
     X:     4.7114      Y:    -0.8964      Z:     0.0418

  Electronic Dipole Moment: [e a0]
     X:    -3.7319      Y:     0.7356      Z:    -0.0357

  Dipole Moment: [e a0]
     X:     0.9795      Y:    -0.1608      Z:     0.0060     Total:     0.9926

  Dipole Moment: [D]
     X:     2.4896      Y:    -0.4087      Z:     0.0153     Total:     2.5230


*** tstop() called on node88.bme.utexas.edu at Mon Feb  1 23:14:57 2021
Module time:
	user time   =      80.09 seconds =       1.33 minutes
	system time =       2.31 seconds =       0.04 minutes
	total time  =         11 seconds =       0.18 minutes
Total time:
	user time   =     111.25 seconds =       1.85 minutes
	system time =       3.49 seconds =       0.06 minutes
	total time  =         16 seconds =       0.27 minutes

    Psi4 stopped on: Monday, 01 February 2021 11:14PM
    Psi4 wall time for execution: 0:00:16.55

*** Psi4 exiting successfully. Buy a developer a beer!
