
    -----------------------------------------------------------------------
          Psi4: An Open-Source Ab Initio Electronic Structure Package
                               Psi4 1.4a3.dev225 

                         Git: Rev {master} 7105e37 


    D. G. A. Smith, L. A. Burns, A. C. Simmonett, R. M. Parrish,
    M. C. Schieber, R. Galvelis, P. Kraus, H. Kruse, R. Di Remigio,
    A. Alenaizan, A. M. James, S. Lehtola, J. P. Misiewicz, M. Scheurer,
    R. A. Shaw, J. B. Schriber, Y. Xie, Z. L. Glick, D. A. Sirianni,
    J. S. O'Brien, J. M. Waldrop, A. Kumar, E. G. Hohenstein,
    B. P. Pritchard, B. R. Brooks, H. F. Schaefer III, A. Yu. Sokolov,
    K. Patkowski, A. E. DePrince III, U. Bozkaya, R. A. King,
    F. A. Evangelista, J. M. Turney, T. D. Crawford, C. D. Sherrill,
    J. Chem. Phys. 152(18) 184108 (2020). https://doi.org/10.1063/5.0006002

                            Additional Code Authors
    E. T. Seidl, C. L. Janssen, E. F. Valeev, M. L. Leininger,
    J. F. Gonthier, R. M. Richard, H. R. McAlexander, M. Saitow, X. Wang,
    P. Verma, and M. H. Lechner

             Previous Authors, Complete List of Code Contributors,
                       and Citations for Specific Modules
    https://github.com/psi4/psi4/blob/master/codemeta.json
    https://github.com/psi4/psi4/graphs/contributors
    http://psicode.org/psi4manual/master/introduction.html#citing-psifour

    -----------------------------------------------------------------------


    Psi4 started on: Friday, 19 March 2021 05:29AM

    Process ID: 119501
    Host:       c468-104.stampede2.tacc.utexas.edu
    PSIDATADIR: /home1/07844/xy3866/miniconda3/envs/p4env/share/psi4
    Memory:     500.0 MiB
    Threads:    8
    
  ==> Input File <==

--------------------------------------------------------------------------
#psi4
#
memory 32 gb

molecule  {
0 1
 Br       -0.4217890     0.0000000     0.0000000
  C        1.5094650     0.0000020    -0.0000020
  H        1.8619480    -0.2218960     1.0109140
  H        1.8619430    -0.7645390    -0.6976170
  H        1.8619410     0.9864280    -0.3132880
units angstrom
no_reorient  #important for SAPT in psi4, default
symmetry c1  #important for SAPT in psi4, default
}

set PROPERTIES_ORIGIN ["COM"]
properties('MP2/aug-cc-pvtz', properties = ['dipole'])
--------------------------------------------------------------------------

  Memory set to  29.802 GiB by Python driver.
    SCF Algorithm Type (re)set to DF.

*** tstart() called on c468-104.stampede2.tacc.utexas.edu
*** at Fri Mar 19 05:29:16 2021

   => Loading Basis Set <=

    Name: AUG-CC-PVTZ
    Role: ORBITAL
    Keyword: BASIS
    atoms 1   entry BR         line  4208 file /home1/07844/xy3866/miniconda3/envs/p4env/share/psi4/basis/aug-cc-pvtz.gbs 
    atoms 2   entry C          line   239 file /home1/07844/xy3866/miniconda3/envs/p4env/share/psi4/basis/aug-cc-pvtz.gbs 
    atoms 3-5 entry H          line    40 file /home1/07844/xy3866/miniconda3/envs/p4env/share/psi4/basis/aug-cc-pvtz.gbs 


         ---------------------------------------------------------
                                   SCF
               by Justin Turney, Rob Parrish, Andy Simmonett
                          and Daniel G. A. Smith
                              RHF Reference
                        8 Threads,  30517 MiB Core
         ---------------------------------------------------------

  ==> Geometry <==

    Molecular point group: c1
    Full point group: C1

    Geometry (in Angstrom), charge = 0, multiplicity = 1:

       Center              X                  Y                   Z               Mass       
    ------------   -----------------  -----------------  -----------------  -----------------
         BR          -0.320196693991    -0.000000180380     0.000000158924    78.918337600000
         C            1.611057306009     0.000001819620    -0.000001841076    12.000000000000
         H            1.963540306009    -0.221896180380     1.010914158924     1.007825032230
         H            1.963535306009    -0.764539180380    -0.697616841076     1.007825032230
         H            1.963533306009     0.986427819620    -0.313287841076     1.007825032230

  Running in c1 symmetry.

  Rotational constants: A =      5.20504  B =      0.32102  C =      0.32101 [cm^-1]
  Rotational constants: A = 156043.29802  B =   9623.78956  C =   9623.78363 [MHz]
  Nuclear repulsion =   89.299546627462931

  Charge       = 0
  Multiplicity = 1
  Electrons    = 44
  Nalpha       = 22
  Nbeta        = 22

  ==> Algorithm <==

  SCF Algorithm Type is DF.
  DIIS enabled.
  MOM disabled.
  Fractional occupation disabled.
  Guess Type is SAD.
  Energy threshold   = 1.00e-10
  Density threshold  = 1.00e-10
  Integral threshold = 1.00e-12

  ==> Primary Basis <==

  Basis Set: AUG-CC-PVTZ
    Blend: AUG-CC-PVTZ
    Number of shells: 60
    Number of basis functions: 174
    Number of Cartesian functions: 199
    Spherical Harmonics?: true
    Max angular momentum: 3

   => Loading Basis Set <=

    Name: (AUG-CC-PVTZ AUX)
    Role: JKFIT
    Keyword: DF_BASIS_SCF
    atoms 1   entry BR         line  1492 file /home1/07844/xy3866/miniconda3/envs/p4env/share/psi4/basis/aug-cc-pvtz-jkfit.gbs 
    atoms 2   entry C          line   162 file /home1/07844/xy3866/miniconda3/envs/p4env/share/psi4/basis/aug-cc-pvtz-jkfit.gbs 
    atoms 3-5 entry H          line    70 file /home1/07844/xy3866/miniconda3/envs/p4env/share/psi4/basis/aug-cc-pvtz-jkfit.gbs 

  ==> Integral Setup <==

  DFHelper Memory: AOs need 0.120 GiB; user supplied 22.352 GiB. Using in-core AOs.

  ==> MemDFJK: Density-Fitted J/K Matrices <==

    J tasked:                   Yes
    K tasked:                   Yes
    wK tasked:                   No
    OpenMP threads:               8
    Memory [MiB]:             22888
    Algorithm:                 Core
    Schwarz Cutoff:           1E-12
    Mask sparsity (%):       0.0000
    Fitting Condition:        1E-10

   => Auxiliary Basis Set <=

  Basis Set: (AUG-CC-PVTZ AUX)
    Blend: AUG-CC-PVTZ-JKFIT
    Number of shells: 130
    Number of basis functions: 490
    Number of Cartesian functions: 625
    Spherical Harmonics?: true
    Max angular momentum: 4

  Minimum eigenvalue in the overlap matrix is 8.4495977633E-05.
  Reciprocal condition number of the overlap matrix is 8.3778062740E-06.
    Using symmetric orthogonalization.

  ==> Pre-Iterations <==

  SCF Guess: Superposition of Atomic Densities via on-the-fly atomic UHF (no occupation information).

   -------------------------
    Irrep   Nso     Nmo    
   -------------------------
     A        174     174 
   -------------------------
    Total     174     174
   -------------------------

  ==> Iterations <==

                           Total Energy        Delta E     RMS |[F,P]|

   @DF-RHF iter SAD: -2609.97340170519146   -2.60997e+03   0.00000e+00 
   @DF-RHF iter   1: -2611.91632879031340   -1.94293e+00   5.46631e-03 DIIS
   @DF-RHF iter   2: -2612.06154458759102   -1.45216e-01   2.47410e-03 DIIS
   @DF-RHF iter   3: -2612.09163669765940   -3.00921e-02   1.43332e-04 DIIS
   @DF-RHF iter   4: -2612.09227902834255   -6.42331e-04   4.28407e-05 DIIS
   @DF-RHF iter   5: -2612.09233427842082   -5.52501e-05   1.35889e-05 DIIS
   @DF-RHF iter   6: -2612.09233874027586   -4.46186e-06   3.38476e-06 DIIS
   @DF-RHF iter   7: -2612.09233906414647   -3.23871e-07   8.24077e-07 DIIS
   @DF-RHF iter   8: -2612.09233910023795   -3.60915e-08   2.51751e-07 DIIS
   @DF-RHF iter   9: -2612.09233910393323   -3.69528e-09   3.50847e-08 DIIS
   @DF-RHF iter  10: -2612.09233910399644   -6.32099e-11   3.63533e-09 DIIS
   @DF-RHF iter  11: -2612.09233910399735   -9.09495e-13   7.80234e-10 DIIS
   @DF-RHF iter  12: -2612.09233910399553    1.81899e-12   1.96696e-10 DIIS
   @DF-RHF iter  13: -2612.09233910399644   -9.09495e-13   3.85705e-11 DIIS
  Energy and wave function converged.


  ==> Post-Iterations <==

    Orbital Energies [Eh]
    ---------------------

    Doubly Occupied:                                                      

       1A   -490.014438     2A    -65.154379     3A    -58.509675  
       4A    -58.508289     5A    -58.508289     6A    -11.290656  
       7A     -9.827301     8A     -7.438884     9A     -7.432145  
      10A     -7.432145    11A     -3.182491    12A     -3.178988  
      13A     -3.178988    14A     -3.170353    15A     -3.170353  
      16A     -1.061702    17A     -0.895747    18A     -0.607813  
      19A     -0.607809    20A     -0.509270    21A     -0.402183  
      22A     -0.402182  

    Virtual:                                                              

      23A      0.027836    24A      0.046357    25A      0.046357  
      26A      0.058335    27A      0.100757    28A      0.115696  
      29A      0.115696    30A      0.128336    31A      0.128336  
      32A      0.130797    33A      0.175709    34A      0.199656  
      35A      0.199656    36A      0.213245    37A      0.260273  
      38A      0.260273    39A      0.290293    40A      0.310692  
      41A      0.310692    42A      0.333272    43A      0.334839  
      44A      0.334840    45A      0.342480    46A      0.392960  
      47A      0.396450    48A      0.396450    49A      0.416113  
      50A      0.432235    51A      0.432236    52A      0.436189  
      53A      0.448241    54A      0.448242    55A      0.497726  
      56A      0.497727    57A      0.576253    58A      0.576254  
      59A      0.579932    60A      0.668660    61A      0.668662  
      62A      0.701332    63A      0.765521    64A      0.784791  
      65A      0.784791    66A      0.817634    67A      0.817636  
      68A      0.865792    69A      0.865793    70A      0.867497  
      71A      0.912271    72A      0.928274    73A      0.935275  
      74A      0.957110    75A      0.957406    76A      0.957410  
      77A      0.977757    78A      0.992517    79A      0.992521  
      80A      1.060921    81A      1.071488    82A      1.071488  
      83A      1.085215    84A      1.085217    85A      1.127415  
      86A      1.127418    87A      1.140025    88A      1.225474  
      89A      1.225475    90A      1.252548    91A      1.252552  
      92A      1.289959    93A      1.353025    94A      1.433429  
      95A      1.433430    96A      1.474517    97A      1.546601  
      98A      1.577333    99A      1.577335   100A      1.609176  
     101A      1.632616   102A      1.632616   103A      1.647535  
     104A      1.714960   105A      1.714962   106A      1.717675  
     107A      1.895189   108A      1.895194   109A      1.928638  
     110A      2.004976   111A      2.004981   112A      2.049818  
     113A      2.154804   114A      2.154806   115A      2.253771  
     116A      2.253772   117A      2.263324   118A      2.342144  
     119A      2.342145   120A      2.344413   121A      2.344590  
     122A      2.427112   123A      2.427112   124A      2.467920  
     125A      2.534877   126A      2.534879   127A      2.602070  
     128A      2.602071   129A      2.647385   130A      2.892661  
     131A      2.999371   132A      3.312674   133A      3.312677  
     134A      3.479024   135A      3.479026   136A      3.502197  
     137A      3.547445   138A      3.572519   139A      3.572520  
     140A      3.728745   141A      3.728750   142A      3.896672  
     143A      3.896678   144A      3.932855   145A      4.022318  
     146A      4.054875   147A      4.054880   148A      4.062121  
     149A      4.113542   150A      4.113542   151A      4.187862  
     152A      4.418112   153A      4.418117   154A      4.460201  
     155A      4.729944   156A      4.729948   157A      4.820454  
     158A      4.841609   159A      4.913341   160A      4.913342  
     161A      5.011538   162A      5.114753   163A      5.114767  
     164A      5.291204   165A      5.472737   166A      5.472754  
     167A      5.550543   168A      5.610915   169A      5.999881  
     170A      5.999900   171A      6.050049   172A      6.581774  
     173A      6.581787   174A     16.761939  

    Final Occupation by Irrep:
              A 
    DOCC [    22 ]

  @DF-RHF Final Energy: -2612.09233910399644

   => Energetics <=

    Nuclear Repulsion Energy =             89.2995466274629308
    One-Electron Energy =               -3813.8156078337497092
    Two-Electron Energy =                1112.4237221022904123
    Total Energy =                      -2612.0923391039964372

Computation Completed

*** tstop() called on c468-104.stampede2.tacc.utexas.edu at Fri Mar 19 05:29:30 2021
Module time:
	user time   =      32.12 seconds =       0.54 minutes
	system time =       2.67 seconds =       0.04 minutes
	total time  =         14 seconds =       0.23 minutes
Total time:
	user time   =      32.12 seconds =       0.54 minutes
	system time =       2.67 seconds =       0.04 minutes
	total time  =         14 seconds =       0.23 minutes
   => Loading Basis Set <=

    Name: (AUG-CC-PVTZ AUX)
    Role: RIFIT
    Keyword: DF_BASIS_MP2
    atoms 1   entry BR         line  1248 file /home1/07844/xy3866/miniconda3/envs/p4env/share/psi4/basis/aug-cc-pvtz-ri.gbs 
    atoms 2   entry C          line   148 file /home1/07844/xy3866/miniconda3/envs/p4env/share/psi4/basis/aug-cc-pvtz-ri.gbs 
    atoms 3-5 entry H          line    30 file /home1/07844/xy3866/miniconda3/envs/p4env/share/psi4/basis/aug-cc-pvtz-ri.gbs 


*** tstart() called on c468-104.stampede2.tacc.utexas.edu
*** at Fri Mar 19 05:29:30 2021


  //>>>>>>>>>>>>>>>>>>>>>>>>>>>>>>>>>>>//
  //               DFMP2               //
  //<<<<<<<<<<<<<<<<<<<<<<<<<<<<<<<<<<<//

	 --------------------------------------------------------
	                          DF-MP2                         
	      2nd-Order Density-Fitted Moller-Plesset Theory     
	              RMP2 Wavefunction,   8 Threads             
	                                                         
	        Rob Parrish, Justin Turney, Andy Simmonett,      
	           Ed Hohenstein, and C. David Sherrill          
	 --------------------------------------------------------

   => Auxiliary Basis Set <=

  Basis Set: (AUG-CC-PVTZ AUX)
    Blend: AUG-CC-PVTZ-RI
    Number of shells: 113
    Number of basis functions: 435
    Number of Cartesian functions: 562
    Spherical Harmonics?: true
    Max angular momentum: 5

	 --------------------------------------------------------
	                 NBF =   174, NAUX =   435
	 --------------------------------------------------------
	   CLASS    FOCC     OCC    AOCC    AVIR     VIR    FVIR
	   PAIRS       0      22      22     152     152       0
	 --------------------------------------------------------

  DFHelper Memory: AOs need 0.120 GiB; user supplied 22.352 GiB. Using in-core AOs.


         ------------------------------------------------------------
                                     CPHF                           
                                  Rob Parrish                       
         ------------------------------------------------------------

  ==> Geometry <==

    Molecular point group: c1
    Full point group: C1

    Geometry (in Angstrom), charge = 0, multiplicity = 1:

       Center              X                  Y                   Z               Mass       
    ------------   -----------------  -----------------  -----------------  -----------------
         BR          -0.320196693991    -0.000000180380     0.000000158924    78.918337600000
         C            1.611057306009     0.000001819620    -0.000001841076    12.000000000000
         H            1.963540306009    -0.221896180380     1.010914158924     1.007825032230
         H            1.963535306009    -0.764539180380    -0.697616841076     1.007825032230
         H            1.963533306009     0.986427819620    -0.313287841076     1.007825032230

  Nuclear repulsion =   89.299546627462931
  Reference energy  = -2612.092339103996437

  ==> Basis Set <==

  Basis Set: AUG-CC-PVTZ
    Blend: AUG-CC-PVTZ
    Number of shells: 60
    Number of basis functions: 174
    Number of Cartesian functions: 199
    Spherical Harmonics?: true
    Max angular momentum: 3

  ==> CGRSolver (by Rob Parrish) <==

   Number of roots    =         1
   Preconditioning    =    JACOBI
   Convergence cutoff =     1E-06
   Maximum iterations =       100

  ==> CPHFRHamiltonian (by Rob Parrish) <== 

  ==> MemDFJK: Density-Fitted J/K Matrices <==

    J tasked:                   Yes
    K tasked:                   Yes
    wK tasked:                   No
    OpenMP threads:               8
    Memory [MiB]:             22888
    Algorithm:                 Core
    Schwarz Cutoff:           1E-12
    Mask sparsity (%):       0.0000
    Fitting Condition:        1E-10

   => Auxiliary Basis Set <=

  Basis Set: (AUG-CC-PVTZ AUX)
    Blend: AUG-CC-PVTZ-JKFIT
    Number of shells: 130
    Number of basis functions: 490
    Number of Cartesian functions: 625
    Spherical Harmonics?: true
    Max angular momentum: 4

  ==> CPHF Iterations <==

  => Iterations <=

             Iter  Converged  Remaining    Residual
  CGR           1          0          1   6.512E-02
  CGR           2          0          1   1.888E-02
  CGR           3          0          1   3.701E-03
  CGR           4          0          1   8.298E-04
  CGR           5          0          1   1.305E-04
  CGR           6          0          1   2.122E-05
  CGR           7          0          1   6.526E-06
  CGR           8          0          1   1.475E-06
  CGR           9          1          0   2.895E-07

    CGRSolver converged.

	-----------------------------------------------------------
	 ==================> DF-MP2 Energies <==================== 
	-----------------------------------------------------------
	 Reference Energy          =   -2612.0923391039964372 [Eh]
	 Singles Energy            =      -0.0000000000000000 [Eh]
	 Same-Spin Energy          =      -0.1267330919841545 [Eh]
	 Opposite-Spin Energy      =      -0.3645625811927698 [Eh]
	 Correlation Energy        =      -0.4912956731769243 [Eh]
	 Total Energy              =   -2612.5836347771733017 [Eh]
	-----------------------------------------------------------
	 ================> DF-SCS-MP2 Energies <================== 
	-----------------------------------------------------------
	 SCS Same-Spin Scale       =       0.3333333333333333 [-]
	 SCS Opposite-Spin Scale   =       1.2000000000000000 [-]
	 SCS Same-Spin Energy      =      -0.0422443639947182 [Eh]
	 SCS Opposite-Spin Energy  =      -0.4374750974313237 [Eh]
	 SCS Correlation Energy    =      -0.4797194614260419 [Eh]
	 SCS Total Energy          =   -2612.5720585654225943 [Eh]
	-----------------------------------------------------------



Properties will be evaluated at  -0.000000,   0.000000,  -0.000000 [a0]

Properties computed using the MP2 density matrix

  Nuclear Dipole Moment: [e a0]
     X:     8.2204      Y:    -0.0000      Z:     0.0000

  Electronic Dipole Moment: [e a0]
     X:    -7.4955      Y:     0.0000      Z:    -0.0000

  Dipole Moment: [e a0]
     X:     0.7249      Y:    -0.0000      Z:     0.0000     Total:     0.7249

  Dipole Moment: [D]
     X:     1.8425      Y:    -0.0000      Z:     0.0000     Total:     1.8425


*** tstop() called on c468-104.stampede2.tacc.utexas.edu at Fri Mar 19 05:30:10 2021
Module time:
	user time   =      82.27 seconds =       1.37 minutes
	system time =       3.35 seconds =       0.06 minutes
	total time  =         40 seconds =       0.67 minutes
Total time:
	user time   =     115.19 seconds =       1.92 minutes
	system time =       6.09 seconds =       0.10 minutes
	total time  =         54 seconds =       0.90 minutes

    Psi4 stopped on: Friday, 19 March 2021 05:30AM
    Psi4 wall time for execution: 0:00:54.19

*** Psi4 exiting successfully. Buy a developer a beer!
