027_CH2Br2 Gaussian SP Calculation on g2-node38.bme.utexas.edu          
Freq      RMP2-FC                                                     6-31G(d)            
Number of atoms                            I                5
Info1-9                                    I   N=           9
          16          15        1002           0           0         100
           6           2           1
Charge                                     I                0
Multiplicity                               I                1
Number of electrons                        I               78
Number of alpha electrons                  I               39
Number of beta electrons                   I               39
Number of basis functions                  I               79
Number of independent functions            I               79
Number of point charges in /Mol/           I                0
Number of translation vectors              I                0
Atomic numbers                             I   N=           5
          35          35           6           1           1
Nuclear charges                            R   N=           5
  3.50000000E+01  3.50000000E+01  6.00000000E+00  1.00000000E+00  1.00000000E+00
Current cartesian coordinates              R   N=          15
  3.05254792E+00 -2.37656228E-01  1.62630326E-17 -3.05254768E+00 -2.37656378E-01
 -3.02926087E-16 -1.45379410E-06  1.79434487E+00 -2.44086104E-08  3.17800230E-07
  2.93493626E+00 -1.70518357E+00  1.89575260E-07  2.93493571E+00  1.70518396E+00
Force Field                                I                0
Int Atom Types                             I   N=           5
           0           0           0           0           0
MM charges                                 R   N=           5
  0.00000000E+00  0.00000000E+00  0.00000000E+00  0.00000000E+00  0.00000000E+00
Integer atomic weights                     I   N=           5
          79          79          12           1           1
Real atomic weights                        R   N=           5
  7.89183361E+01  7.89183361E+01  1.20000000E+01  1.00782504E+00  1.00782504E+00
Atom fragment info                         I   N=           5
           0           0           0           0           0
Atom residue num                           I   N=           5
           0           0           0           0           0
Nuclear spins                              I   N=           5
           3           3           0           1           1
Nuclear ZEff                               R   N=           5
 -2.45000000E+01 -2.45000000E+01 -3.60000000E+00 -1.00000000E+00 -1.00000000E+00
Nuclear QMom                               R   N=           5
  3.13000000E+01  3.13000000E+01  0.00000000E+00  0.00000000E+00  0.00000000E+00
Nuclear GFac                               R   N=           5
  2.10639900E+00  2.10639900E+00  0.00000000E+00  2.79284600E+00  2.79284600E+00
MicOpt                                     I   N=           5
          -1          -1          -1          -1          -1
Number of contracted shells                I               32
Number of primitive shells                 I               81
Pure/Cartesian d shells                    I                1
Pure/Cartesian f shells                    I                0
Highest angular momentum                   I                2
Largest degree of contraction              I                8
Shell types                                I   N=          32
           0           0           0           0           0           0
           1           1           1           1           2           2
           0           0           0           0           0           0
           1           1           1           1           2           2
           0          -1          -1           2           0           0
           0           0
Number of primitives per shell             I   N=          32
           8           2           1           1           1           1
           6           3           1           1           5           1
           8           2           1           1           1           1
           6           3           1           1           5           1
           6           3           1           1           3           1
           3           1
Shell to atom map                          I   N=          32
           1           1           1           1           1           1
           1           1           1           1           1           1
           2           2           2           2           2           2
           2           2           2           2           2           2
           3           3           3           3           4           4
           5           5
Primitive exponents                        R   N=          81
  5.74300000E+05  8.90700000E+04  2.02100000E+04  5.73600000E+03  1.89900000E+03
  6.98700000E+02  2.77800000E+02  1.15200000E+02  3.59700000E+01  1.55000000E+01
  4.77100000E+00  2.07700000E+00  4.21100000E-01  1.61000000E-01  4.40600000E+03
  1.04200000E+03  3.32100000E+02  1.21900000E+02  4.92400000E+01  2.11600000E+01
  8.83600000E+00  3.82900000E+00  1.64300000E+00  4.65000000E-01  1.42700000E-01
  1.08400000E+02  3.07100000E+01  1.06600000E+01  3.85100000E+00  1.31700000E+00
  3.38000000E-01  5.74300000E+05  8.90700000E+04  2.02100000E+04  5.73600000E+03
  1.89900000E+03  6.98700000E+02  2.77800000E+02  1.15200000E+02  3.59700000E+01
  1.55000000E+01  4.77100000E+00  2.07700000E+00  4.21100000E-01  1.61000000E-01
  4.40600000E+03  1.04200000E+03  3.32100000E+02  1.21900000E+02  4.92400000E+01
  2.11600000E+01  8.83600000E+00  3.82900000E+00  1.64300000E+00  4.65000000E-01
  1.42700000E-01  1.08400000E+02  3.07100000E+01  1.06600000E+01  3.85100000E+00
  1.31700000E+00  3.38000000E-01  3.04752488E+03  4.57369518E+02  1.03948685E+02
  2.92101553E+01  9.28666296E+00  3.16392696E+00  7.86827235E+00  1.88128854E+00
  5.44249258E-01  1.68714478E-01  8.00000000E-01  1.87311370E+01  2.82539436E+00
  6.40121692E-01  1.61277759E-01  1.87311370E+01  2.82539436E+00  6.40121692E-01
  1.61277759E-01
Contraction coefficients                   R   N=          81
  2.10682753E-04  1.61271721E-03  8.36010959E-03  3.40275588E-02  1.08515001E-01
  2.67396944E-01  4.29567221E-01  2.86993117E-01  2.77772914E-01  7.47057636E-01
  1.00000000E+00  1.00000000E+00  1.00000000E+00  1.00000000E+00  1.39552623E-03
  1.23748283E-02  6.10175241E-02  2.26775547E-01  4.05975875E-01  4.50692322E-01
  2.92018585E-01  5.30220862E-01  2.75287404E-01  1.00000000E+00  1.00000000E+00
  2.15879371E-02  1.34176036E-01  3.67870647E-01  4.91895206E-01  2.68321979E-01
  1.00000000E+00  2.10682753E-04  1.61271721E-03  8.36010959E-03  3.40275588E-02
  1.08515001E-01  2.67396944E-01  4.29567221E-01  2.86993117E-01  2.77772914E-01
  7.47057636E-01  1.00000000E+00  1.00000000E+00  1.00000000E+00  1.00000000E+00
  1.39552623E-03  1.23748283E-02  6.10175241E-02  2.26775547E-01  4.05975875E-01
  4.50692322E-01  2.92018585E-01  5.30220862E-01  2.75287404E-01  1.00000000E+00
  1.00000000E+00  2.15879371E-02  1.34176036E-01  3.67870647E-01  4.91895206E-01
  2.68321979E-01  1.00000000E+00  1.83473713E-03  1.40373228E-02  6.88426223E-02
  2.32184443E-01  4.67941348E-01  3.62311985E-01 -1.19332420E-01 -1.60854152E-01
  1.14345644E+00  1.00000000E+00  1.00000000E+00  3.34946043E-02  2.34726953E-01
  8.13757326E-01  1.00000000E+00  3.34946043E-02  2.34726953E-01  8.13757326E-01
  1.00000000E+00
P(S=P) Contraction coefficients            R   N=          81
  0.00000000E+00  0.00000000E+00  0.00000000E+00  0.00000000E+00  0.00000000E+00
  0.00000000E+00  0.00000000E+00  0.00000000E+00  0.00000000E+00  0.00000000E+00
  0.00000000E+00  0.00000000E+00  0.00000000E+00  0.00000000E+00  0.00000000E+00
  0.00000000E+00  0.00000000E+00  0.00000000E+00  0.00000000E+00  0.00000000E+00
  0.00000000E+00  0.00000000E+00  0.00000000E+00  0.00000000E+00  0.00000000E+00
  0.00000000E+00  0.00000000E+00  0.00000000E+00  0.00000000E+00  0.00000000E+00
  0.00000000E+00  0.00000000E+00  0.00000000E+00  0.00000000E+00  0.00000000E+00
  0.00000000E+00  0.00000000E+00  0.00000000E+00  0.00000000E+00  0.00000000E+00
  0.00000000E+00  0.00000000E+00  0.00000000E+00  0.00000000E+00  0.00000000E+00
  0.00000000E+00  0.00000000E+00  0.00000000E+00  0.00000000E+00  0.00000000E+00
  0.00000000E+00  0.00000000E+00  0.00000000E+00  0.00000000E+00  0.00000000E+00
  0.00000000E+00  0.00000000E+00  0.00000000E+00  0.00000000E+00  0.00000000E+00
  0.00000000E+00  0.00000000E+00  0.00000000E+00  0.00000000E+00  0.00000000E+00
  0.00000000E+00  0.00000000E+00  0.00000000E+00  6.89990666E-02  3.16423961E-01
  7.44308291E-01  1.00000000E+00  0.00000000E+00  0.00000000E+00  0.00000000E+00
  0.00000000E+00  0.00000000E+00  0.00000000E+00  0.00000000E+00  0.00000000E+00
  0.00000000E+00
Coordinates of each shell                  R   N=          96
  3.05254792E+00 -2.37656228E-01  1.62630326E-17  3.05254792E+00 -2.37656228E-01
  1.62630326E-17  3.05254792E+00 -2.37656228E-01  1.62630326E-17  3.05254792E+00
 -2.37656228E-01  1.62630326E-17  3.05254792E+00 -2.37656228E-01  1.62630326E-17
  3.05254792E+00 -2.37656228E-01  1.62630326E-17  3.05254792E+00 -2.37656228E-01
  1.62630326E-17  3.05254792E+00 -2.37656228E-01  1.62630326E-17  3.05254792E+00
 -2.37656228E-01  1.62630326E-17  3.05254792E+00 -2.37656228E-01  1.62630326E-17
  3.05254792E+00 -2.37656228E-01  1.62630326E-17  3.05254792E+00 -2.37656228E-01
  1.62630326E-17 -3.05254768E+00 -2.37656378E-01 -1.91903785E-16 -3.05254768E+00
 -2.37656378E-01 -1.91903785E-16 -3.05254768E+00 -2.37656378E-01 -1.91903785E-16
 -3.05254768E+00 -2.37656378E-01 -1.91903785E-16 -3.05254768E+00 -2.37656378E-01
 -1.91903785E-16 -3.05254768E+00 -2.37656378E-01 -1.91903785E-16 -3.05254768E+00
 -2.37656378E-01 -1.91903785E-16 -3.05254768E+00 -2.37656378E-01 -1.91903785E-16
 -3.05254768E+00 -2.37656378E-01 -1.91903785E-16 -3.05254768E+00 -2.37656378E-01
 -1.91903785E-16 -3.05254768E+00 -2.37656378E-01 -1.91903785E-16 -3.05254768E+00
 -2.37656378E-01 -1.91903785E-16 -1.45379410E-06  1.79434487E+00 -2.44086105E-08
 -1.45379410E-06  1.79434487E+00 -2.44086105E-08 -1.45379410E-06  1.79434487E+00
 -2.44086105E-08 -1.45379410E-06  1.79434487E+00 -2.44086105E-08  3.17800230E-07
  2.93493626E+00 -1.70518357E+00  3.17800230E-07  2.93493626E+00 -1.70518357E+00
  1.89575260E-07  2.93493571E+00  1.70518396E+00  1.89575260E-07  2.93493571E+00
  1.70518396E+00
Constraint Structure                       R   N=          15
  3.05254792E+00 -2.37656228E-01  1.62630326E-17 -3.05254768E+00 -2.37656378E-01
 -1.91903785E-16 -1.45379410E-06  1.79434487E+00 -2.44086105E-08  3.17800230E-07
  2.93493626E+00 -1.70518357E+00  1.89575260E-07  2.93493571E+00  1.70518396E+00
Num ILSW                                   I              100
ILSW                                       I   N=         100
           0           1           0           0           2           0
           0           0           0           0           0          -1
           0           0           0           0           0           0
           0           0           0           0           1           0
           1           0           0           0           0           0
           0           0      100000           0          -1           0
           0           0           0           0           0           0
           0           0           0           1           1           0
           0           0           1           0           0           0
           0           0           4          40           0           0
           0           0           0           0           0           0
           0           0           0           0           0           0
           0           0           0           0           0           0
           0           0           0           0           0           0
           0           0           0           0           0           0
           0           0           0           0           0           0
           0           0           0           0
Num RLSW                                   I               40
RLSW                                       R   N=          40
  1.00000000E+00  1.00000000E+00  1.00000000E+00  1.00000000E+00  1.00000000E+00
  0.00000000E+00  0.00000000E+00  1.00000000E+00  0.00000000E+00  0.00000000E+00
  0.00000000E+00  0.00000000E+00  1.00000000E+00  0.00000000E+00  0.00000000E+00
  0.00000000E+00  0.00000000E+00  1.00000000E+00  0.00000000E+00  0.00000000E+00
  0.00000000E+00  0.00000000E+00  1.00000000E+00  0.00000000E+00  0.00000000E+00
  0.00000000E+00  0.00000000E+00  1.00000000E+00  0.00000000E+00  0.00000000E+00
  0.00000000E+00  0.00000000E+00  0.00000000E+00  0.00000000E+00  0.00000000E+00
  0.00000000E+00  0.00000000E+00  0.00000000E+00  1.00000000E+00  1.00000000E+00
MxBond                                     I                4
NBond                                      I   N=           5
           1           1           4           1           1
IBond                                      I   N=          20
           3           0           0           0           3           0
           0           0           1           2           4           5
           3           0           0           0           3           0
           0           0
RBond                                      R   N=          20
  1.00000000E+00  0.00000000E+00  0.00000000E+00  0.00000000E+00  1.00000000E+00
  0.00000000E+00  0.00000000E+00  0.00000000E+00  1.00000000E+00  1.00000000E+00
  1.00000000E+00  1.00000000E+00  1.00000000E+00  0.00000000E+00  0.00000000E+00
  0.00000000E+00  1.00000000E+00  0.00000000E+00  0.00000000E+00  0.00000000E+00
Virial Ratio                               R      2.004485337340991E+00
SCF Energy                                 R     -5.178799271606287E+03
MP2 Energy                                 R     -5.179156328020710E+03
Total Energy                               R     -5.179156328020710E+03
Post-SCF wavefunction norm                 R      1.517994798768455E+00
RMS Force                                  R      3.472832663214330E-07
RMS Density                                R      1.194026076415880E-09
External E-field                           R   N=          35
  0.00000000E+00  0.00000000E+00  0.00000000E+00  0.00000000E+00  0.00000000E+00
  0.00000000E+00  0.00000000E+00  0.00000000E+00  0.00000000E+00  0.00000000E+00
  0.00000000E+00  0.00000000E+00  0.00000000E+00  0.00000000E+00  0.00000000E+00
  0.00000000E+00  0.00000000E+00  0.00000000E+00  0.00000000E+00  0.00000000E+00
  0.00000000E+00  0.00000000E+00  0.00000000E+00  0.00000000E+00  0.00000000E+00
  0.00000000E+00  0.00000000E+00  0.00000000E+00  0.00000000E+00  0.00000000E+00
  0.00000000E+00  0.00000000E+00  0.00000000E+00  0.00000000E+00  0.00000000E+00
IOpCl                                      I                0
IROHF                                      I                0
Alpha Orbital Energies                     R   N=          79
 -4.90075000E+02 -4.90074903E+02 -6.44877101E+01 -6.44869174E+01 -5.86265317E+01
 -5.86264827E+01 -5.86247920E+01 -5.86246809E+01 -5.86246368E+01 -5.86246040E+01
 -1.13609708E+01 -9.73603410E+00 -9.73577391E+00 -7.48543982E+00 -7.48543765E+00
 -7.47612708E+00 -7.47612247E+00 -7.47594915E+00 -7.47594574E+00 -3.22428396E+00
 -3.22426850E+00 -3.21999823E+00 -3.21999436E+00 -3.21978887E+00 -3.21978784E+00
 -3.20904587E+00 -3.20904530E+00 -3.20904235E+00 -3.20904199E+00 -1.10899707E+00
 -1.00049087E+00 -8.72595648E-01 -6.63391754E-01 -5.71750835E-01 -5.33317468E-01
 -4.27650087E-01 -4.24666379E-01 -4.12063251E-01 -4.01157217E-01  1.13665181E-01
  1.74456832E-01  2.35302032E-01  2.64804258E-01  3.96412368E-01  4.29804007E-01
  5.54296674E-01  5.82394250E-01  5.85312290E-01  6.06380324E-01  6.18080478E-01
  6.33261950E-01  6.52084626E-01  6.55923372E-01  6.82727483E-01  6.85432107E-01
  6.94498301E-01  7.05724099E-01  7.42311069E-01  7.99190152E-01  8.48721284E-01
  9.21302014E-01  1.00573251E+00  1.07171245E+00  1.13645658E+00  1.17857526E+00
  1.18879518E+00  1.54107196E+00  1.82349886E+00  1.83884505E+00  1.98478517E+00
  2.02295127E+00  2.34490339E+00  2.41790255E+00  2.53096599E+00  4.49252437E+00
  9.24452758E+00  9.28485450E+00  7.39051370E+01  7.50092861E+01
Alpha MO coefficients                      R   N=        6241
 -7.02934355E-01 -2.32426591E-02  3.14562875E-02  3.39054886E-02  1.82679930E-02
  1.49498302E-02  1.23434843E-05 -3.75278985E-06  2.02368861E-13 -3.57902219E-05
  6.89041803E-06 -1.84394701E-13  1.96573082E-04 -2.95206818E-05  1.96281520E-13
 -7.76750994E-04  2.92765643E-04  1.46776180E-12 -3.13674606E-02 -3.13505164E-02
 -3.13394675E-02  5.97515690E-06  3.95640431E-13 -1.98355706E-14 -7.77969447E-03
 -7.94633696E-03 -8.05403372E-03 -8.41170570E-05 -3.11759397E-12  3.21351566E-13
  7.04147760E-01  2.32825331E-02 -3.15098056E-02 -3.39630024E-02 -1.83003881E-02
 -1.49714758E-02  1.23658717E-05  3.76807110E-06 -2.48004837E-13 -3.58548930E-05
 -6.93442122E-06  7.66038415E-14  1.96774076E-04  2.96982363E-05 -5.47184940E-13
 -7.76678470E-04 -2.92970088E-04  8.51058508E-12  3.14206233E-02  3.14036985E-02
  3.13926512E-02  5.97101925E-06 -5.82470266E-13 -3.51837295E-13  7.79273657E-03
  7.95914184E-03  8.06680880E-03 -8.40657878E-05  5.16261188E-12  3.31893734E-12
  2.26352671E-08  6.86488733E-08  3.95089244E-04  1.95938862E-07  5.48855495E-12
 -5.15955812E-07 -9.24364447E-04 -1.24786361E-07 -3.78787225E-11 -8.37799128E-08
 -5.28380160E-08  2.08886758E-08 -1.72503151E-05  2.14606559E-13 -3.92519507E-12
  4.74106597E-08  4.57972775E-07  4.74171677E-08  4.58026675E-07  7.04117961E-01
  2.31383002E-02 -3.10560312E-02 -3.33747102E-02 -1.87982318E-02 -1.25613087E-02
 -1.29945873E-05  8.86264793E-06  1.70571865E-13  3.75464032E-05 -2.55262622E-05
 -1.14513781E-12 -1.16788187E-04  1.02995451E-04  1.87041389E-12 -4.17827263E-05
 -1.18226546E-04  3.46304790E-11  3.08498638E-02  3.08610764E-02  3.08620397E-02
  2.41246257E-06  3.51060164E-12 -1.65190107E-12  7.56824127E-03  7.43094771E-03
  7.41352423E-03 -2.98441102E-05 -3.08735437E-11  1.58569128E-11  7.02904504E-01
  2.30981772E-02 -3.10017297E-02 -3.33161811E-02 -1.87666948E-02 -1.25355068E-02
  1.29732723E-05  8.85616175E-06  3.45973175E-13 -3.74845875E-05 -2.55143226E-05
 -2.07216845E-12  1.16448916E-04  1.02944343E-04  6.74925424E-12  4.31215565E-05
 -1.17722073E-04  2.27828621E-11  3.07957160E-02  3.08069577E-02  3.08079400E-02
 -2.42272405E-06 -3.16643443E-12 -9.11658881E-13  7.55481164E-03  7.41723107E-03
  7.39962211E-03  2.99887733E-05  2.81920393E-11  1.05892801E-11  2.63769750E-05
  8.17162178E-05 -3.40389928E-07  2.27142405E-04  4.13524727E-11 -6.01067567E-04
  7.95582367E-07 -1.44080397E-04 -3.33329464E-10 -9.84468608E-05 -6.18327402E-05
  2.42867236E-05  1.57044039E-08  4.10995532E-12 -1.94938398E-11  5.48233708E-05
  5.31300608E-04  5.48234514E-05  5.31300953E-04  2.99500058E-01 -8.24230359E-01
  1.92575885E-01  2.59462491E-01  1.39800659E-01  1.18411718E-01  5.76744560E-04
 -3.85995522E-04  2.86642076E-11 -2.22132250E-04  8.39581288E-06  2.07133259E-12
  1.56717978E-03 -2.29465289E-04  5.55084657E-13 -6.19815786E-03  2.32789196E-03
  1.22199066E-11 -2.39576109E-01 -2.39423911E-01 -2.39324137E-01  6.55728765E-05
  1.63495471E-12  7.29234111E-13 -6.10616928E-02 -6.23895919E-02 -6.32431606E-02
 -6.56909240E-04 -2.49027291E-11  2.59328440E-12 -2.99564634E-01  8.24407849E-01
 -1.92616904E-01 -2.59517922E-01 -1.39831880E-01 -1.18433265E-01  5.76869274E-04
  3.86081449E-04 -4.37406414E-11 -2.22181886E-04 -8.42948483E-06 -4.77914771E-12
  1.56737389E-03  2.29639764E-04 -2.92185633E-12 -6.19809167E-03 -2.32810631E-03
  6.73746739E-11  2.39627177E-01  2.39474996E-01  2.39375221E-01  6.55731015E-05
 -6.64918797E-12 -4.12722593E-12  6.10745575E-02  6.24022164E-02  6.32557573E-02
 -6.56860763E-04  4.10609119E-11  2.63826870E-11  2.04059460E-08  6.91271431E-08
  3.13824181E-03  1.97029475E-07  4.36743546E-11 -4.76568056E-07 -7.34620114E-03
 -1.27770047E-07 -3.02362298E-10 -9.24731961E-08 -5.85274344E-08  1.72858254E-08
 -2.35768240E-04  2.63469444E-12 -3.10572032E-11  4.54277136E-08  4.53724249E-07
  4.54798055E-08  4.54155956E-07 -2.99688251E-01  8.23707933E-01 -1.90366184E-01
 -2.57249002E-01 -1.44915275E-01 -9.99150863E-02 -5.76440478E-04  3.94679033E-04
 -2.81442578E-11  2.31920038E-04 -1.57270562E-04 -1.26273952E-11 -9.06127211E-04
  8.11294738E-04  1.55131891E-11 -3.32243779E-04 -9.59164641E-04  2.75727047E-10
  2.37000203E-01  2.37076820E-01  2.37073713E-01  1.79890597E-07  2.93499684E-11
 -1.39434930E-11  5.96994414E-02  5.85912749E-02  5.84475290E-02 -2.36669286E-04
 -2.45299497E-10  1.25692904E-10 -2.99623702E-01  8.23530292E-01 -1.90324679E-01
 -2.57193083E-01 -1.44885139E-01 -9.98895826E-02  5.76316684E-04  3.94596721E-04
 -4.27982060E-11 -2.31871872E-04 -1.57268509E-04 -2.18078700E-11  9.05789091E-04
  8.11244987E-04  5.44010466E-11  3.33572993E-04 -9.58668095E-04  1.81732197E-10
  2.36948570E-01  2.37025219E-01  2.37022133E-01 -1.93696483E-07 -2.71242892E-11
 -8.54773679E-12  5.96862806E-02  5.85778296E-02  5.84339016E-02  2.36808031E-04
  2.23958083E-10  8.39914637E-11  1.97757125E-04  7.73611941E-04 -3.35347890E-07
  1.82359991E-03  3.29283253E-10 -4.60396977E-03  7.79140144E-07 -1.14720631E-03
 -2.65823176E-09 -9.37464000E-04 -5.76524268E-04  1.65261259E-04  3.17730455E-08
  3.13368606E-11 -1.54436895E-10  4.12120805E-04  4.22810335E-03  4.12121444E-04
  4.22810612E-03 -2.12321865E-04  1.24422389E-03 -1.82240822E-03 -9.23710196E-04
  2.45657825E-03 -1.06579811E-02  6.02587164E-01 -3.35026541E-01  2.35295560E-08
  3.83733682E-02 -2.12698574E-02  1.49037823E-09 -1.19486566E-02  6.23384734E-03
 -4.23422312E-10  7.13584023E-03 -2.98326787E-03  1.45790317E-10  1.70882211E-03
  1.59427620E-03  1.59387324E-03  3.10866220E-05 -5.01514116E-12  2.94644661E-12
  2.35665094E-03  3.29402278E-03  3.38048341E-03 -3.34680733E-05  2.87402664E-11
 -1.66601128E-11  2.12937952E-04 -1.24905274E-03  1.83046836E-03  9.29017436E-04
 -2.45200816E-03  1.06673537E-02  6.04598779E-01  3.36362630E-01 -3.16560592E-08
  3.85012512E-02  2.13548235E-02 -2.00389563E-09 -1.19863413E-02 -6.25936566E-03
  5.73266239E-10  7.14698791E-03  2.99339343E-03 -2.95037665E-10 -1.71610340E-03
 -1.60208345E-03 -1.60173669E-03  3.12934115E-05  2.18827768E-12  3.15779448E-13
 -2.36637906E-03 -3.29956912E-03 -3.38571265E-03 -3.49304616E-05 -4.04360740E-11
 -1.85757069E-11 -5.98112779E-07 -6.31693706E-06 -3.70996984E-04 -5.13444153E-07
 -3.60789241E-11  1.01586565E-05  7.80385517E-04 -2.48011923E-06  3.06175575E-10
  3.38541696E-06  8.85440505E-07 -1.93479199E-06  1.82867790E-03 -2.22908277E-11
  4.17369984E-11  3.46943127E-07 -3.74885615E-06  3.46834457E-07 -3.74923074E-06
 -1.76423634E-04  1.38306844E-03 -2.30870677E-03 -1.52043532E-03 -1.30044871E-03
 -2.70481009E-03  5.75642997E-01 -3.83833372E-01  1.93157354E-08  3.65951881E-02
 -2.44084344E-02  1.21750570E-09 -1.07856720E-02  7.32877375E-03 -3.42366082E-10
  3.19839352E-03 -2.91008178E-03  3.49471611E-10  2.08623952E-03  2.23610741E-03
  2.25219355E-03  5.90703334E-05  1.80279415E-11 -8.96471310E-12  2.78521994E-03
  1.59305465E-03  1.50283607E-03 -4.17055115E-04 -1.72620156E-10  9.42074995E-11
 -1.75681299E-04  1.37871000E-03 -2.30231551E-03 -1.51719051E-03 -1.30904563E-03
 -2.66747812E-03 -5.73529629E-01 -3.82664933E-01  2.64438491E-08 -3.64606085E-02
 -2.43342526E-02  1.66595178E-09  1.07437730E-02  7.30702943E-03 -4.54478064E-10
 -3.17338293E-03 -2.89966882E-03  3.61947601E-10  2.08024531E-03  2.23051354E-03
  2.24660173E-03 -5.89618054E-05 -1.60792094E-11 -5.51565280E-12  2.77696133E-03
  1.58151709E-03  1.49099262E-03  4.16939738E-04  1.63171371E-10  7.33310804E-11
  3.42332482E-04  3.60931557E-03 -6.42433949E-07  2.92580373E-04  2.25475490E-10
 -5.81245755E-03  1.36864008E-06  1.41376483E-03 -1.86067576E-09 -1.93194728E-03
 -5.03026336E-04  1.10718331E-03  3.18996551E-06  3.84055291E-12 -1.87564796E-10
 -1.98643443E-04  2.14864812E-03 -1.98642859E-04  2.14865009E-03 -6.12213808E-05
 -5.03168255E-05  4.91350105E-04  3.17716288E-04 -1.12414193E-03  3.69510782E-03
 -3.35493278E-01 -6.03363207E-01  2.10257300E-08 -2.12773549E-02 -3.81467419E-02
  1.32991067E-09  6.49176866E-03  1.08574700E-02 -3.79930138E-10 -3.71077159E-03
 -4.87643561E-03  1.54160746E-10 -5.29234532E-04 -4.62644702E-04 -4.36103530E-04
 -1.08282428E-05 -3.24051036E-13  2.92537463E-12 -4.58071173E-04 -1.27747229E-03
 -1.23273684E-03  1.80686909E-04  4.89257397E-12 -8.06040551E-12  6.12246630E-05
  5.03136951E-05 -4.91349312E-04 -3.17771157E-04  1.12288751E-03 -3.69209143E-03
 -3.35918392E-01  6.03989636E-01 -4.15110758E-08 -2.13041953E-02  3.81863007E-02
 -2.62319460E-09  6.49913075E-03 -1.08685609E-02  7.42841230E-10 -3.71283663E-03
  4.88134362E-03 -3.38880695E-10  5.29183656E-04  4.62706092E-04  4.36146650E-04
 -1.08269891E-05  2.37660897E-12 -2.30093420E-12  4.57902409E-04  1.27687329E-03
  1.23201893E-03  1.80842310E-04 -2.23878562E-11 -8.73571964E-12  3.63261968E-08
  1.99350178E-07 -2.49236587E-04 -3.90843448E-08 -1.77074221E-11 -8.31171833E-07
  4.82164363E-04  2.95203480E-07  1.27817490E-10  4.09814969E-08 -4.93925883E-08
  8.22454498E-08  1.91351490E-04 -2.22535388E-12  1.26592510E-11  1.16042791E-07
 -3.53497889E-07  1.16015447E-07 -3.53641424E-07  7.94463311E-13 -8.26815147E-13
 -6.84075104E-12  1.17413882E-11  1.19326737E-10 -3.27328946E-10 -9.32012623E-09
 -6.15255462E-08 -6.89988833E-01 -5.84300744E-10 -3.88850357E-09 -4.36097231E-02
  1.42653234E-10  1.10118704E-09  1.23783860E-02  3.60745770E-11 -5.15646404E-10
 -5.39829755E-03  3.69748463E-12 -2.20949441E-12  1.10739140E-12 -2.22600065E-13
 -6.44076108E-07 -2.13276715E-05  4.04337787E-11  6.11153883E-11  8.32782989E-11
  2.61115025E-11  1.86800349E-04  3.21242521E-06 -8.97540930E-12 -4.66099797E-12
  6.63936715E-11  3.96054722E-11  2.12345373E-11  1.32836087E-10  2.71244211E-08
  1.99938416E-08  6.91519055E-01  1.72070912E-09  1.26893318E-09  4.37063439E-02
 -5.05490202E-10 -3.78131470E-10 -1.24054227E-02  1.91082840E-10  1.56783876E-10
  5.40988792E-03 -5.89236279E-11 -6.10541523E-11 -6.76082260E-11  2.05937815E-12
 -5.94973947E-07  2.13081307E-05 -8.46690197E-11 -7.07121986E-11 -5.62194710E-11
 -1.15882904E-11  1.86995210E-04 -2.74861813E-06 -1.67819632E-11 -8.25970839E-11
 -2.11915136E-11 -7.45554958E-12  7.43585702E-08  3.81943648E-10  4.24228612E-11
  4.37126081E-11 -1.06593590E-06 -2.03750998E-11 -1.60976034E-11 -1.58885797E-11
  6.90575742E-11 -2.09284275E-06 -1.14874717E-07 -3.83309299E-07  7.76177763E-07
  3.83233318E-07 -7.76358601E-07  4.20982410E-06 -1.32732551E-05  1.86755245E-05
 -3.77547013E-05 -1.13398205E-03  2.77160012E-03  3.83488352E-01  5.74991052E-01
  1.35609358E-08  2.42105206E-02  3.63117699E-02  8.54956888E-10 -6.63525913E-03
 -1.01844933E-02 -2.36089252E-10  1.85999759E-03  4.50441027E-03  1.21641094E-10
 -6.27820205E-05  3.83850108E-05  2.16684688E-05 -1.50264700E-06  4.22268903E-13
 -3.25019359E-12 -1.74979177E-04 -5.58328232E-04 -6.66264490E-04 -1.39329210E-04
 -1.80305190E-11  1.87352950E-11  4.14436262E-06 -1.33375402E-05  1.92269198E-05
 -3.73998713E-05 -1.13523036E-03  2.77572343E-03 -3.83116328E-01  5.74331750E-01
  6.82773146E-08 -2.41869254E-02  3.62700872E-02  4.31365425E-09  6.62805905E-03
 -1.01726307E-02 -1.22132092E-09 -1.85588028E-03  4.49908424E-03  5.61525938E-10
 -6.33741400E-05  3.78667048E-05  2.11791867E-05  1.51472114E-06 -4.16383236E-13
 -3.07496846E-12 -1.75497568E-04 -5.59750894E-04 -6.67638695E-04  1.39131010E-04
  3.64377294E-11  2.48449197E-11  6.32059706E-05  3.35856077E-04  1.35215544E-07
 -7.35165279E-05  3.37470224E-11 -1.46551614E-03 -2.61198893E-07  5.30601785E-04
 -1.94198699E-10  8.62986856E-05 -8.63329016E-05  1.40615236E-04 -9.86201841E-08
  3.18146040E-12  9.96133760E-12  2.13096713E-04 -6.64886525E-04  2.13096687E-04
 -6.64886288E-04 -1.45381490E-11 -2.19745538E-11  1.36214860E-10  1.08568469E-10
  1.50740014E-10 -4.53968345E-11 -4.32022053E-08 -3.21977098E-08  6.91531045E-01
 -2.73815535E-09 -2.02673921E-09  4.36644886E-02  7.96676085E-10  5.42564439E-10
 -1.22184629E-02 -1.88691875E-10 -2.98334576E-10  5.23766679E-03 -1.29145037E-10
 -1.38755756E-10 -1.45818893E-10 -3.13026059E-12 -2.21745566E-05 -8.80610007E-06
 -1.43617243E-10 -8.80715885E-11 -3.12395685E-11  4.97179139E-11 -8.79352790E-05
  2.09226430E-04 -1.74899302E-11 -1.81038560E-11  1.45325737E-10  1.11396335E-10
  1.37625321E-10  1.68605667E-11  4.02360681E-08 -1.04356656E-08  6.90000850E-01
  2.55153445E-09 -6.49698061E-10  4.35677750E-02 -7.44760798E-10  1.43945377E-10
 -1.21910117E-02  1.66853827E-10 -1.06571085E-10  5.22569563E-03 -1.35358673E-10
 -1.46349355E-10 -1.55161839E-10  2.96135522E-12  2.21759882E-05 -8.85326516E-06
 -1.71313844E-10 -9.68852162E-11 -4.62232086E-11 -4.23544523E-11  8.75211747E-05
  2.09233069E-04 -5.74044431E-11 -2.76208984E-10 -1.53139698E-13 -3.19398358E-12
  6.67521565E-05  1.25841322E-09  1.37809467E-12  6.91700368E-11 -9.59895902E-04
 -5.10984545E-11 -3.34218188E-11 -1.08425623E-10  1.75173846E-11  1.12283068E-09
 -1.02668572E-04 -3.45453195E-04  7.02112878E-04  3.45453070E-04 -7.02113713E-04
  3.12245148E-06 -3.82422219E-05  1.28351149E-04 -1.77359999E-04 -9.31263150E-04
  4.25413801E-03 -1.30633031E-05  7.07285551E-06  8.30605478E-13  4.77527949E-05
 -2.60999443E-05 -2.65727764E-12 -2.85852985E-04  1.68766632E-04  1.18507066E-11
 -1.48455972E-03  8.48124359E-04 -1.52197660E-12 -4.03868357E-05 -3.18953618E-05
 -5.06838139E-05 -1.28510131E-05  2.26610715E-12 -2.19714045E-12 -3.12382175E-04
 -6.81376649E-04 -7.16125656E-04 -2.23194712E-04 -1.74674202E-11  1.62283870E-11
  3.12246893E-06 -3.82421092E-05  1.28350691E-04 -1.77360328E-04 -9.31263872E-04
  4.25414344E-03  1.30631799E-05  7.07277081E-06  1.35087893E-12 -4.77523977E-05
 -2.60996724E-05 -4.40352001E-12  2.85852268E-04  1.68766079E-04  2.54605272E-11