13740443                                                                
Freq      RMP2-FC                                                     6-31G(d)            
Number of atoms                            I               11
Info1-9                                    I   N=           9
          23          21        1002           0           0         100
           6           2           1
Charge                                     I                0
Multiplicity                               I                1
Number of electrons                        I               44
Number of alpha electrons                  I               22
Number of beta electrons                   I               22
Number of basis functions                  I              100
Number of independent functions            I              100
Number of point charges in /Mol/           I                0
Number of translation vectors              I                0
Atomic numbers                             I   N=          11
           8           7           6           6           6           6
           1           1           1           1           1
Nuclear charges                            R   N=          11
  8.00000000E+00  7.00000000E+00  6.00000000E+00  6.00000000E+00  6.00000000E+00
  6.00000000E+00  1.00000000E+00  1.00000000E+00  1.00000000E+00  1.00000000E+00
  1.00000000E+00
Current cartesian coordinates              R   N=          33
 -3.96122476E+00 -2.37730013E-01  2.47002030E-05  2.65716682E+00 -1.18497923E+00
 -5.71437858E-05 -1.36423348E+00 -4.08735740E-02  3.75593852E-05  2.26540255E-01
 -2.11603450E+00  7.99491272E-05  1.37392679E-01  2.17562501E+00 -3.63646574E-05
  2.63930908E+00  1.40058401E+00 -9.09819502E-05 -1.86660367E-01 -4.11365496E+00
  1.09526135E-04 -5.20013996E-01  4.11385371E+00 -8.83603142E-05  4.23011058E+00
 -2.26712176E+00  4.59188254E-05  4.37281839E+00  2.48050237E+00 -1.68671379E-04
 -4.64067548E+00  1.46730971E+00  3.63020180E-04
Force Field                                I                0
Int Atom Types                             I   N=          11
           0           0           0           0           0           0
           0           0           0           0           0
MM charges                                 R   N=          11
  0.00000000E+00  0.00000000E+00  0.00000000E+00  0.00000000E+00  0.00000000E+00
  0.00000000E+00  0.00000000E+00  0.00000000E+00  0.00000000E+00  0.00000000E+00
  0.00000000E+00
Integer atomic weights                     I   N=          11
          16          14          12          12          12          12
           1           1           1           1           1
Real atomic weights                        R   N=          11
  1.59949146E+01  1.40030740E+01  1.20000000E+01  1.20000000E+01  1.20000000E+01
  1.20000000E+01  1.00782504E+00  1.00782504E+00  1.00782504E+00  1.00782504E+00
  1.00782504E+00
Atom fragment info                         I   N=          11
           0           0           0           0           0           0
           0           0           0           0           0
Atom residue num                           I   N=          11
           0           0           0           0           0           0
           0           0           0           0           0
Nuclear spins                              I   N=          11
           0           2           0           0           0           0
           1           1           1           1           1
Nuclear ZEff                               R   N=          11
 -5.60000000E+00 -4.55000000E+00 -3.60000000E+00 -3.60000000E+00 -3.60000000E+00
 -3.60000000E+00 -1.00000000E+00 -1.00000000E+00 -1.00000000E+00 -1.00000000E+00
 -1.00000000E+00
Nuclear QMom                               R   N=          11
  0.00000000E+00  2.04400000E+00  0.00000000E+00  0.00000000E+00  0.00000000E+00
  0.00000000E+00  0.00000000E+00  0.00000000E+00  0.00000000E+00  0.00000000E+00
  0.00000000E+00
Nuclear GFac                               R   N=          11
  0.00000000E+00  4.03761000E-01  0.00000000E+00  0.00000000E+00  0.00000000E+00
  0.00000000E+00  2.79284600E+00  2.79284600E+00  2.79284600E+00  2.79284600E+00
  2.79284600E+00
MicOpt                                     I   N=          11
          -1          -1          -1          -1          -1          -1
          -1          -1          -1          -1          -1
Number of contracted shells                I               34
Number of primitive shells                 I               86
Pure/Cartesian d shells                    I                1
Pure/Cartesian f shells                    I                0
Highest angular momentum                   I                2
Largest degree of contraction              I                6
Shell types                                I   N=          34
           0          -1          -1           2           0          -1
          -1           2           0          -1          -1           2
           0          -1          -1           2           0          -1
          -1           2           0          -1          -1           2
           0           0           0           0           0           0
           0           0           0           0
Number of primitives per shell             I   N=          34
           6           3           1           1           6           3
           1           1           6           3           1           1
           6           3           1           1           6           3
           1           1           6           3           1           1
           3           1           3           1           3           1
           3           1           3           1
Shell to atom map                          I   N=          34
           1           1           1           1           2           2
           2           2           3           3           3           3
           4           4           4           4           5           5
           5           5           6           6           6           6
           7           7           8           8           9           9
          10          10          11          11
Primitive exponents                        R   N=          86
  5.48467166E+03  8.25234946E+02  1.88046958E+02  5.29645000E+01  1.68975704E+01
  5.79963534E+00  1.55396162E+01  3.59993359E+00  1.01376175E+00  2.70005823E-01
  8.00000000E-01  4.17351146E+03  6.27457911E+02  1.42902093E+02  4.02343293E+01
  1.28202129E+01  4.39043701E+00  1.16263619E+01  2.71627981E+00  7.72218397E-01
  2.12031498E-01  8.00000000E-01  3.04752488E+03  4.57369518E+02  1.03948685E+02
  2.92101553E+01  9.28666296E+00  3.16392696E+00  7.86827235E+00  1.88128854E+00
  5.44249258E-01  1.68714478E-01  8.00000000E-01  3.04752488E+03  4.57369518E+02
  1.03948685E+02  2.92101553E+01  9.28666296E+00  3.16392696E+00  7.86827235E+00
  1.88128854E+00  5.44249258E-01  1.68714478E-01  8.00000000E-01  3.04752488E+03
  4.57369518E+02  1.03948685E+02  2.92101553E+01  9.28666296E+00  3.16392696E+00
  7.86827235E+00  1.88128854E+00  5.44249258E-01  1.68714478E-01  8.00000000E-01
  3.04752488E+03  4.57369518E+02  1.03948685E+02  2.92101553E+01  9.28666296E+00
  3.16392696E+00  7.86827235E+00  1.88128854E+00  5.44249258E-01  1.68714478E-01
  8.00000000E-01  1.87311370E+01  2.82539436E+00  6.40121692E-01  1.61277759E-01
  1.87311370E+01  2.82539436E+00  6.40121692E-01  1.61277759E-01  1.87311370E+01
  2.82539436E+00  6.40121692E-01  1.61277759E-01  1.87311370E+01  2.82539436E+00
  6.40121692E-01  1.61277759E-01  1.87311370E+01  2.82539436E+00  6.40121692E-01
  1.61277759E-01
Contraction coefficients                   R   N=          86
  1.83107443E-03  1.39501722E-02  6.84450781E-02  2.32714336E-01  4.70192898E-01
  3.58520853E-01 -1.10777550E-01 -1.48026263E-01  1.13076702E+00  1.00000000E+00
  1.00000000E+00  1.83477216E-03  1.39946270E-02  6.85865518E-02  2.32240873E-01
  4.69069948E-01  3.60455199E-01 -1.14961182E-01 -1.69117479E-01  1.14585195E+00
  1.00000000E+00  1.00000000E+00  1.83473713E-03  1.40373228E-02  6.88426223E-02
  2.32184443E-01  4.67941348E-01  3.62311985E-01 -1.19332420E-01 -1.60854152E-01
  1.14345644E+00  1.00000000E+00  1.00000000E+00  1.83473713E-03  1.40373228E-02
  6.88426223E-02  2.32184443E-01  4.67941348E-01  3.62311985E-01 -1.19332420E-01
 -1.60854152E-01  1.14345644E+00  1.00000000E+00  1.00000000E+00  1.83473713E-03
  1.40373228E-02  6.88426223E-02  2.32184443E-01  4.67941348E-01  3.62311985E-01
 -1.19332420E-01 -1.60854152E-01  1.14345644E+00  1.00000000E+00  1.00000000E+00
  1.83473713E-03  1.40373228E-02  6.88426223E-02  2.32184443E-01  4.67941348E-01
  3.62311985E-01 -1.19332420E-01 -1.60854152E-01  1.14345644E+00  1.00000000E+00
  1.00000000E+00  3.34946043E-02  2.34726953E-01  8.13757326E-01  1.00000000E+00
  3.34946043E-02  2.34726953E-01  8.13757326E-01  1.00000000E+00  3.34946043E-02
  2.34726953E-01  8.13757326E-01  1.00000000E+00  3.34946043E-02  2.34726953E-01
  8.13757326E-01  1.00000000E+00  3.34946043E-02  2.34726953E-01  8.13757326E-01
  1.00000000E+00
P(S=P) Contraction coefficients            R   N=          86
  0.00000000E+00  0.00000000E+00  0.00000000E+00  0.00000000E+00  0.00000000E+00
  0.00000000E+00  7.08742682E-02  3.39752839E-01  7.27158577E-01  1.00000000E+00
  0.00000000E+00  0.00000000E+00  0.00000000E+00  0.00000000E+00  0.00000000E+00
  0.00000000E+00  0.00000000E+00  6.75797439E-02  3.23907296E-01  7.40895140E-01
  1.00000000E+00  0.00000000E+00  0.00000000E+00  0.00000000E+00  0.00000000E+00
  0.00000000E+00  0.00000000E+00  0.00000000E+00  6.89990666E-02  3.16423961E-01
  7.44308291E-01  1.00000000E+00  0.00000000E+00  0.00000000E+00  0.00000000E+00
  0.00000000E+00  0.00000000E+00  0.00000000E+00  0.00000000E+00  6.89990666E-02
  3.16423961E-01  7.44308291E-01  1.00000000E+00  0.00000000E+00  0.00000000E+00
  0.00000000E+00  0.00000000E+00  0.00000000E+00  0.00000000E+00  0.00000000E+00
  6.89990666E-02  3.16423961E-01  7.44308291E-01  1.00000000E+00  0.00000000E+00
  0.00000000E+00  0.00000000E+00  0.00000000E+00  0.00000000E+00  0.00000000E+00
  0.00000000E+00  6.89990666E-02  3.16423961E-01  7.44308291E-01  1.00000000E+00
  0.00000000E+00  0.00000000E+00  0.00000000E+00  0.00000000E+00  0.00000000E+00
  0.00000000E+00  0.00000000E+00  0.00000000E+00  0.00000000E+00  0.00000000E+00
  0.00000000E+00  0.00000000E+00  0.00000000E+00  0.00000000E+00  0.00000000E+00
  0.00000000E+00  0.00000000E+00  0.00000000E+00  0.00000000E+00  0.00000000E+00
  0.00000000E+00
Coordinates of each shell                  R   N=         102
 -3.96122476E+00 -2.37730013E-01  2.47002030E-05 -3.96122476E+00 -2.37730013E-01
  2.47002030E-05 -3.96122476E+00 -2.37730013E-01  2.47002030E-05 -3.96122476E+00
 -2.37730013E-01  2.47002030E-05  2.65716682E+00 -1.18497923E+00 -5.71437858E-05
  2.65716682E+00 -1.18497923E+00 -5.71437858E-05  2.65716682E+00 -1.18497923E+00
 -5.71437858E-05  2.65716682E+00 -1.18497923E+00 -5.71437858E-05 -1.36423348E+00
 -4.08735740E-02  3.75593852E-05 -1.36423348E+00 -4.08735740E-02  3.75593852E-05
 -1.36423348E+00 -4.08735740E-02  3.75593852E-05 -1.36423348E+00 -4.08735740E-02
  3.75593852E-05  2.26540255E-01 -2.11603450E+00  7.99491272E-05  2.26540255E-01
 -2.11603450E+00  7.99491272E-05  2.26540255E-01 -2.11603450E+00  7.99491272E-05
  2.26540255E-01 -2.11603450E+00  7.99491272E-05  1.37392679E-01  2.17562501E+00
 -3.63646574E-05  1.37392679E-01  2.17562501E+00 -3.63646574E-05  1.37392679E-01
  2.17562501E+00 -3.63646574E-05  1.37392679E-01  2.17562501E+00 -3.63646574E-05
  2.63930908E+00  1.40058401E+00 -9.09819502E-05  2.63930908E+00  1.40058401E+00
 -9.09819502E-05  2.63930908E+00  1.40058401E+00 -9.09819502E-05  2.63930908E+00
  1.40058401E+00 -9.09819502E-05 -1.86660367E-01 -4.11365496E+00  1.09526135E-04
 -1.86660367E-01 -4.11365496E+00  1.09526135E-04 -5.20013996E-01  4.11385371E+00
 -8.83603142E-05 -5.20013996E-01  4.11385371E+00 -8.83603142E-05  4.23011058E+00
 -2.26712176E+00  4.59188254E-05  4.23011058E+00 -2.26712176E+00  4.59188254E-05
  4.37281839E+00  2.48050237E+00 -1.68671379E-04  4.37281839E+00  2.48050237E+00
 -1.68671379E-04 -4.64067548E+00  1.46730971E+00  3.63020180E-04 -4.64067548E+00
  1.46730971E+00  3.63020180E-04
Constraint Structure                       R   N=          33
 -3.96122476E+00 -2.37730013E-01  2.47002030E-05  2.65716682E+00 -1.18497923E+00
 -5.71437858E-05 -1.36423348E+00 -4.08735740E-02  3.75593852E-05  2.26540255E-01
 -2.11603450E+00  7.99491272E-05  1.37392679E-01  2.17562501E+00 -3.63646574E-05
  2.63930908E+00  1.40058401E+00 -9.09819502E-05 -1.86660367E-01 -4.11365496E+00
  1.09526135E-04 -5.20013996E-01  4.11385371E+00 -8.83603142E-05  4.23011058E+00
 -2.26712176E+00  4.59188254E-05  4.37281839E+00  2.48050237E+00 -1.68671379E-04
 -4.64067548E+00  1.46730971E+00  3.63020180E-04
Num ILSW                                   I              100
ILSW                                       I   N=         100
           0           1           0           1           2           0
           0           0           0           0           0          -1
           0           0           0           0           0           0
           0           0           0           0           1           0
           1           0           0           0           0           0
           0           0      100000           0          -1           0
           0           0           0           0           0           0
           0           0           0           1           1           0
           0           0           1           0           0           0
           0           0           4          40           0           0
           0           0           0           0           0           0
           0           0           0           0           0           0
           0           0           0           0           0           0
           0           0           0           0           0           0
           0           0           0           0           0           0
           0           0           0           0           0           0
           0           0           0           0
Num RLSW                                   I               40
RLSW                                       R   N=          40
  1.00000000E+00  1.00000000E+00  1.00000000E+00  1.00000000E+00  1.00000000E+00
  0.00000000E+00  0.00000000E+00  1.00000000E+00  0.00000000E+00  0.00000000E+00
  0.00000000E+00  0.00000000E+00  1.00000000E+00  0.00000000E+00  0.00000000E+00
  0.00000000E+00  0.00000000E+00  1.00000000E+00  0.00000000E+00  0.00000000E+00
  0.00000000E+00  0.00000000E+00  1.00000000E+00  0.00000000E+00  0.00000000E+00
  0.00000000E+00  0.00000000E+00  1.00000000E+00  0.00000000E+00  0.00000000E+00
  0.00000000E+00  0.00000000E+00  0.00000000E+00  0.00000000E+00  0.00000000E+00
  0.00000000E+00  0.00000000E+00  0.00000000E+00  1.00000000E+00  1.00000000E+00
MxBond                                     I                3
NBond                                      I   N=          11
           2           3           3           3           3           3
           1           1           1           1           1
IBond                                      I   N=          33
           3          11           0           4           6           9
           1           4           5           2           3           7
           3           6           8           2           5          10
           4           0           0           5           0           0
           2           0           0           6           0           0
           1           0           0
RBond                                      R   N=          33
  1.50000000E+00  1.00000000E+00  0.00000000E+00  1.00000000E+00  1.00000000E+00
  1.00000000E+00  1.50000000E+00  1.50000000E+00  1.50000000E+00  1.00000000E+00
  1.50000000E+00  1.00000000E+00  1.50000000E+00  1.50000000E+00  1.00000000E+00
  1.00000000E+00  1.50000000E+00  1.00000000E+00  1.00000000E+00  0.00000000E+00
  0.00000000E+00  1.00000000E+00  0.00000000E+00  0.00000000E+00  1.00000000E+00
  0.00000000E+00  0.00000000E+00  1.00000000E+00  0.00000000E+00  0.00000000E+00
  1.00000000E+00  0.00000000E+00  0.00000000E+00
Virial Ratio                               R      2.002743853777800E+00
SCF Energy                                 R     -2.836515662969915E+02
MP2 Energy                                 R     -2.845047712327146E+02
Total Energy                               R     -2.845047712327146E+02
Post-SCF wavefunction norm                 R      1.601698755917044E+00
RMS Force                                  R      9.420295384486308E-07
RMS Density                                R      1.215704767034131E-09
External E-field                           R   N=          35
  0.00000000E+00  0.00000000E+00  0.00000000E+00  0.00000000E+00  0.00000000E+00
  0.00000000E+00  0.00000000E+00  0.00000000E+00  0.00000000E+00  0.00000000E+00
  0.00000000E+00  0.00000000E+00  0.00000000E+00  0.00000000E+00  0.00000000E+00
  0.00000000E+00  0.00000000E+00  0.00000000E+00  0.00000000E+00  0.00000000E+00
  0.00000000E+00  0.00000000E+00  0.00000000E+00  0.00000000E+00  0.00000000E+00
  0.00000000E+00  0.00000000E+00  0.00000000E+00  0.00000000E+00  0.00000000E+00
  0.00000000E+00  0.00000000E+00  0.00000000E+00  0.00000000E+00  0.00000000E+00
IOpCl                                      I                0
IROHF                                      I                0
Alpha Orbital Energies                     R   N=         100
 -2.05761998E+01 -1.56094780E+01 -1.12702111E+01 -1.12591057E+01 -1.12379222E+01
 -1.12107267E+01 -1.37411864E+00 -1.28263885E+00 -1.03115379E+00 -9.70693902E-01
 -7.95586423E-01 -7.74503768E-01 -7.36447616E-01 -6.44683698E-01 -6.04205570E-01
 -5.83308928E-01 -5.81495757E-01 -5.62499008E-01 -5.25235327E-01 -5.02372665E-01
 -3.28607265E-01 -2.80092015E-01  1.95654659E-01  2.19366468E-01  2.32195915E-01
  2.79501322E-01  2.87669802E-01  3.09023786E-01  3.19804917E-01  4.05318337E-01
  4.36322166E-01  4.81030940E-01  5.22325601E-01  5.45118540E-01  7.02000099E-01
  7.41543453E-01  7.80747526E-01  8.19667141E-01  8.31675844E-01  8.44827049E-01
  8.56342789E-01  8.64914571E-01  8.69376211E-01  9.04458708E-01  9.54412882E-01
  1.02006534E+00  1.03594245E+00  1.06971366E+00  1.10623368E+00  1.11771994E+00
  1.15343195E+00  1.17284582E+00  1.18914032E+00  1.21592809E+00  1.25917673E+00
  1.26457371E+00  1.34748161E+00  1.42036901E+00  1.48647966E+00  1.53236198E+00
  1.54930432E+00  1.59438138E+00  1.62937611E+00  1.63879874E+00  1.71599902E+00
  1.75797745E+00  1.77885181E+00  1.82553222E+00  2.04057654E+00  2.04200469E+00
  2.08054008E+00  2.14328099E+00  2.19888421E+00  2.31570276E+00  2.34189211E+00
  2.38937738E+00  2.42268860E+00  2.48316657E+00  2.55569915E+00  2.56399781E+00
  2.59454120E+00  2.66126899E+00  2.66379687E+00  2.74865624E+00  2.88229135E+00
  2.90516214E+00  2.96711064E+00  2.97987156E+00  3.04842366E+00  3.12343441E+00
  3.15302458E+00  3.37825807E+00  3.47806029E+00  3.49101190E+00  4.33485760E+00
  4.45991403E+00  4.55600036E+00  4.63285185E+00  4.78347438E+00  5.05583424E+00
Alpha MO coefficients                      R   N=       10000
  9.94647039E-01  2.11716402E-02  7.25873463E-04  1.14376161E-03  2.14339169E-07
  4.02248157E-03 -2.61859484E-04 -7.00808487E-04 -1.01368469E-07 -4.15876250E-03
 -4.10853430E-03 -3.87574878E-03  2.67355793E-05  1.43269658E-08 -5.51924608E-08
  1.21290216E-05  5.21963790E-05 -3.63860573E-06 -4.75302916E-08  6.63135910E-10
 -5.26118370E-04  1.94387471E-04 -1.49921034E-04 -2.17980080E-09  1.17351265E-05
  2.34457142E-05  2.42936824E-05  3.14458880E-06  1.17248037E-09 -2.13373899E-09
 -1.29248042E-05  3.58557233E-04 -3.40948120E-04 -6.37316497E-05 -6.74166653E-09
  6.58185422E-05  1.60474002E-04  9.81517318E-04  3.49758262E-08 -6.64713540E-05
 -2.85366616E-05 -6.94271640E-05  2.78752643E-05 -3.97446264E-09 -1.90391855E-09
 -1.85051853E-06 -5.39962125E-06 -4.49888995E-06  1.30091028E-05 -2.23217033E-09
  7.12144055E-04 -5.68477143E-05  3.01177277E-04 -2.98247258E-08 -2.03378328E-05
  2.44773177E-05 -1.48927661E-05  2.11485430E-05 -3.74386026E-10 -6.17396949E-09
  1.48440057E-05  1.01415425E-04  3.09185457E-05  7.10980541E-06  5.02789293E-10
 -1.11874816E-03  1.34326104E-04  4.86702029E-04 -2.93583364E-08 -6.36595647E-05
  1.85092326E-05  2.09044930E-05 -3.29752538E-05  3.53337117E-09  4.03328760E-09
 -3.70361222E-06 -2.17998850E-05 -6.62175197E-06  4.08334369E-06  1.15921348E-09
  4.48345029E-04 -3.12308960E-04 -2.41170302E-04  1.28975620E-08  1.07743080E-05
  9.26060275E-06 -1.06608637E-05 -9.61190437E-06 -3.70736140E-10  9.75343034E-10
  1.23440301E-06  4.60012383E-05 -2.99122052E-06 -5.17262189E-05 -9.62543806E-06
 -3.49470126E-05  1.88191487E-05  1.19204023E-04  4.42377891E-04 -2.40390135E-04
 -3.03854319E-06  3.78689463E-06 -6.66175732E-06  1.59687315E-05 -1.53715533E-09
 -6.17945584E-05 -9.52219717E-06 -1.22409592E-04  4.10526577E-09 -1.36687714E-05
 -2.00513251E-05 -7.89113502E-06 -2.13651682E-05  8.38192642E-10 -3.06226723E-09
  9.94978989E-01  2.51952194E-02 -6.50889109E-05  6.66000478E-05  1.19428564E-07
 -3.51660802E-03  9.98823371E-04 -7.38885131E-04 -9.85552203E-08 -3.39883345E-03
 -3.41434196E-03 -3.38892474E-03 -4.24844704E-05  1.07201934E-08 -2.79435701E-09
  1.13338606E-05 -5.13574892E-06 -1.28586562E-05  5.65222952E-05 -1.87392318E-09
 -6.95548480E-04 -4.87910012E-04  4.96967279E-04 -1.03161073E-08  5.27058675E-05
  2.00587043E-05  6.08731860E-06  1.74578360E-05 -3.28591104E-09 -7.66654509E-10
  1.31294188E-05  1.53554313E-04  2.51714862E-04  5.79444671E-05 -1.17386127E-08
  2.18266988E-03  4.77806600E-04  1.18694690E-03 -4.54309878E-08 -8.31191374E-05
 -6.69975687E-05 -7.90956193E-05 -1.76304993E-05  3.42998398E-09 -9.21754287E-10
  1.56413206E-05  3.11676020E-05 -7.27122029E-05 -1.16846793E-05  2.50714470E-09
 -1.04973169E-03 -1.61479520E-04  5.86004996E-04 -1.32998779E-08  9.10746240E-06
  4.63991997E-05  1.66809135E-05 -3.57189408E-06 -1.61669078E-09 -1.69726164E-10
  1.95052323E-05  1.66740687E-04  4.17441800E-05 -2.55089147E-04  4.89753910E-09
  2.03996777E-03 -8.63152631E-04 -1.04390810E-03  5.55953988E-08 -5.83944544E-05
 -1.00812675E-04 -6.79761203E-05  1.76604773E-07 -3.81595324E-10 -1.18127151E-09
  7.66587075E-07  2.92071423E-04 -2.50649336E-05 -1.27879349E-04  1.28883267E-04
  1.22270848E-04  7.65774260E-06  3.12806327E-04  2.92507725E-05 -4.61069702E-05
  6.87379993E-05  1.30133080E-03  2.02243022E-04  1.86492516E-05  3.77173596E-09
 -5.87384233E-03 -2.87909104E-03 -2.60405398E-04 -4.37367586E-08 -5.85089264E-04
  6.73317304E-04  8.92088355E-04 -6.61797749E-05 -6.66650032E-09 -1.95430707E-08
  6.02820408E-05  1.70660412E-04 -4.35392356E-05  4.54211338E-05  7.00599111E-09
 -2.87667156E-03  1.25624377E-03  1.38204282E-04 -9.13198199E-08  1.89366024E-04
  1.45403088E-04  1.07105676E-04 -4.44474739E-05  9.82858851E-09 -5.02087180E-09
  9.95592749E-01  2.73189182E-02 -9.23123836E-04  3.58035460E-05 -1.76180855E-09
 -1.51019933E-02 -9.36503238E-03 -4.77259024E-04  6.67516625E-08 -6.65495445E-04
 -1.54962579E-03 -2.10156512E-03  8.70624242E-05 -1.81710375E-09 -4.52275645E-09
  1.93468401E-02  2.39162354E-04  6.21898989E-06 -1.07290429E-04 -6.31377918E-10
  8.53684345E-03  5.96856939E-04  5.25709553E-03 -1.68539312E-07 -3.55879040E-04
 -2.71872988E-04 -1.84065785E-04  5.25383314E-05 -6.18891376E-09 -3.71303785E-09
  8.45084445E-03  2.53093722E-05 -1.24539837E-04  1.23081488E-04 -2.13289430E-09
  7.75335314E-03  4.36605244E-04 -4.49030219E-03  1.11002166E-07 -3.97078337E-04
 -3.67512159E-04 -1.61662674E-04 -1.07373060E-04  2.44872848E-09  1.16007280E-08
 -2.44939640E-04 -1.40550141E-04  9.75336971E-05 -1.21678514E-04  4.39082931E-09
 -1.85834526E-03  3.70749778E-04 -6.77174021E-05 -3.06349313E-08  1.50804153E-04
  5.24073420E-05 -2.46879571E-05  6.32152472E-05  1.93558298E-10 -4.39326909E-09
  1.11147756E-04  1.37832463E-03  8.28646602E-05  1.10249053E-03 -2.65555343E-05
 -5.33857655E-05  1.02892728E-05  2.17329200E-04  2.19717090E-04 -2.72244152E-04
  4.40212933E-06  3.22244886E-05 -1.02544663E-05  2.23123208E-05 -3.31834296E-09
 -2.96188671E-04 -6.61955674E-06 -1.82979319E-04  9.52601322E-09  1.44054548E-07
  1.51231122E-06  1.45668441E-05 -1.58280593E-05  1.93737314E-09 -2.95073545E-09
 -2.42327253E-04  4.72443808E-04 -1.97686994E-05  4.87463147E-05 -5.01812048E-09
 -9.89768644E-04  1.71079331E-03 -1.34952047E-03 -1.57115231E-08 -2.01385996E-04
 -6.72831250E-04  2.11336809E-04  5.58045243E-06  3.27325447E-08  5.72192387E-09
  1.79176182E-04  3.28185913E-05  7.31594423E-06  7.81260193E-05  1.73007150E-09
 -3.12665469E-03 -1.63941714E-03  1.12357505E-03 -4.21222470E-08  1.29968888E-04
  4.92386239E-05  5.20044996E-05  1.22530764E-04 -1.06726767E-08 -5.27114433E-10
 -9.93068172E-04 -4.18369423E-04  1.12121516E-04 -7.28123164E-06 -1.32940160E-08
  3.58758898E-03  6.13219071E-05  3.33267388E-03 -9.00983217E-08  1.62050533E-04
  1.51547266E-04 -1.08828468E-04  1.02741664E-04 -1.61729559E-08 -1.95422317E-08
  1.25899647E-02  1.88782525E-04 -2.08762354E-04  8.82055688E-05  7.30631495E-09
  3.78426748E-03  1.86269060E-03 -5.52394552E-04 -3.65689273E-08 -3.37356570E-04
 -3.47870653E-04 -1.11446714E-04  6.58069677E-05  3.35084698E-09  4.64984684E-09
  9.95568794E-01  2.71311597E-02  8.50316751E-06 -1.05086501E-03  7.86952848E-09
 -9.46900476E-03  6.39106750E-04 -7.87378978E-04 -1.00213930E-08 -1.59000817E-03
 -1.47358426E-03 -2.39509157E-03  1.36104614E-04 -2.28280459E-08 -2.32480307E-08
  1.27185272E-04  1.18184245E-03 -4.13691810E-05  3.77385438E-05 -2.35467809E-04
 -6.67390455E-04 -2.70199272E-04  2.05826115E-03  2.61367718E-05 -5.57175779E-06
  2.43824772E-05  1.48753024E-05  7.82340987E-06  3.66599208E-05  7.22036495E-11
 -5.03516437E-04 -6.65188383E-05 -4.92126652E-05 -7.29391670E-09  1.74381682E-04
  4.77408690E-05 -8.12154130E-06 -1.52796839E-05  5.95612698E-09 -7.66463944E-09
 -2.33695368E-04  4.68586295E-04 -3.95025198E-05 -1.83746485E-06 -3.18377935E-09
 -8.12466496E-04  1.81746628E-03 -1.01838145E-03 -4.04788023E-08 -6.70886984E-04
 -2.56532995E-04  1.93070101E-04 -1.89228296E-04  6.39151731E-08  1.43512649E-08
 -1.98910507E-02 -6.94803415E-04 -1.05492091E-04  1.65017313E-04 -1.94259792E-09
  4.61100706E-03  9.19919967E-04 -1.36439078E-03 -4.17954217E-09 -4.29490704E-04
 -2.52474023E-04 -5.99751385E-05  3.52675144E-05  1.62683940E-09  7.35442480E-09
  9.95424994E-01  2.73644325E-02  9.91806298E-04  5.01388545E-04 -1.20277165E-07
 -9.54134844E-03  9.78618547E-04 -4.75761243E-04  6.69034737E-08 -1.65504083E-03
 -1.53210369E-03 -2.39739804E-03  1.52849658E-04 -3.52903642E-08 -3.31554343E-08
 -6.31156630E-04 -1.76331139E-05 -1.02407528E-04 -5.52965425E-05  5.16540792E-09
 -2.88343218E-03 -1.02150726E-03  1.20303449E-03  2.76536278E-09 -3.76564153E-06
  2.12679063E-04  4.80372628E-05  5.64703041E-05 -1.26197928E-09 -7.39316874E-09
  9.32837578E-04 -3.32149154E-04  6.71434341E-05 -1.06277445E-04 -3.56042035E-09
  2.99156597E-03 -2.85724654E-03 -1.26388437E-03  1.17929040E-07  7.73693043E-05
  2.05112773E-04 -1.06003873E-04  7.70660879E-05 -7.53680213E-09 -9.41024415E-09
 -2.66012724E-04  1.99692197E-03 -4.51017796E-05 -2.44606107E-04 -2.21490388E-04
 -6.59671172E-04  1.38213715E-04  1.16112337E-03  6.42095599E-05  5.36213670E-05
  7.12508654E-06 -3.01665495E-05 -1.16417318E-05  9.43455055E-06  2.53156277E-09
 -9.71784913E-05  2.25680125E-05 -3.11906745E-04  5.29622231E-09  1.15154314E-04
  4.15956424E-06 -4.69876036E-05 -2.31295242E-05  5.37939435E-09 -8.15744334E-09
  7.70015328E-05  1.88207227E-04 -7.54421562E-05  6.51361957E-05  1.17343002E-09
 -2.41971770E-03  7.22868257E-04 -9.95852831E-04 -3.23604678E-09  1.50544824E-04
  1.94012219E-04  1.48575024E-04 -5.63495164E-05  8.65987458E-09 -1.82150125E-09
 -8.95449261E-03 -2.92659424E-04 -1.26686989E-04 -6.67080258E-05  4.64841869E-09
  4.91348845E-03  1.33492637E-03  2.22830019E-03 -9.11188646E-08 -4.60258444E-04
 -4.40878905E-04 -1.08199381E-04 -1.33919719E-04  5.42504932E-09  8.29354239E-09
  5.06667056E-04 -1.47682480E-04  8.95552656E-05  3.95803424E-05 -8.89716768E-09
  5.20772481E-04 -1.02599340E-04  4.80314912E-04 -5.31800082E-09  7.25571459E-05
  1.80781154E-04 -1.81516128E-05 -1.50247822E-05 -3.64371364E-10 -6.50250078E-09
  9.95521166E-01  2.79730650E-02  4.07427246E-05 -3.82602578E-04  5.99087306E-09
 -1.52666347E-02 -7.25361390E-04  3.06465118E-03 -1.41248427E-08 -1.76647918E-03
 -1.64539220E-03 -2.32375958E-03 -8.63056019E-05 -1.02491049E-08 -1.80410329E-08
 -1.31191026E-02 -5.62773622E-04  2.15485632E-04 -8.37912238E-06 -8.64414535E-09
  6.47540722E-03 -2.92384762E-03 -8.88917386E-04  8.75692656E-08 -4.41536166E-04
 -2.33130425E-04 -1.01560920E-04  3.38980047E-05  1.33294345E-08  3.22435658E-09
 -1.83586513E-05  2.40916243E-04 -3.00240181E-04  1.33094672E-03 -8.75462567E-05
 -1.47338367E-04  1.22268180E-05  4.85723467E-04  2.44507643E-05  4.31067046E-05
 -2.00995859E-01  4.47306043E-01  5.57853198E-02  6.81981872E-02  1.26890313E-05
  4.53276227E-01  3.99040823E-02  4.13602737E-02  7.81165076E-06  1.52419907E-02
  1.81826415E-02 -4.23378814E-03 -4.04197060E-03 -9.61562235E-07  4.97647367E-06
 -1.71982152E-02  3.55729499E-02 -9.85062349E-03  4.36893552E-03  6.14506083E-07
  3.99400525E-02 -4.40096096E-03 -2.13390778E-03  9.47207298E-07  2.27117430E-03
  1.00993155E-03 -1.12996597E-03 -4.64747327E-04 -1.04910416E-07 -8.71116965E-08
 -7.78303856E-02  1.41786131E-01 -9.66601366E-02 -3.94888339E-03  3.73654609E-07
  5.13032799E-02  4.51665052E-02  5.87389294E-03  1.46113558E-07  2.50960886E-02
 -8.01162718E-03 -1.17347094E-02  6.54712569E-04 -3.15656262E-07  5.14267756E-08
 -2.10200523E-02  3.95817207E-02 -9.21540298E-03  2.00439797E-02 -8.00496991E-07
  4.30900623E-03 -1.44632251E-02 -1.32965471E-02  4.81831258E-08  3.87863809E-03