60867189                                                                
Freq      RMP2-FC                                                     6-31G(d)            
Number of atoms                            I               20
Info1-9                                    I   N=           9
          32          30        1002           0           0         100
           6           2           1
Charge                                     I                0
Multiplicity                               I                1
Number of electrons                        I               84
Number of alpha electrons                  I               42
Number of beta electrons                   I               42
Number of basis functions                  I              196
Number of independent functions            I              196
Number of point charges in /Mol/           I                0
Number of translation vectors              I                0
Atomic numbers                             I   N=          20
           7           7           7           7           6           6
           6           6           6           6           6           6
           1           1           1           1           1           1
           1           1
Nuclear charges                            R   N=          20
  7.00000000E+00  7.00000000E+00  7.00000000E+00  7.00000000E+00  6.00000000E+00
  6.00000000E+00  6.00000000E+00  6.00000000E+00  6.00000000E+00  6.00000000E+00
  6.00000000E+00  6.00000000E+00  1.00000000E+00  1.00000000E+00  1.00000000E+00
  1.00000000E+00  1.00000000E+00  1.00000000E+00  1.00000000E+00  1.00000000E+00
Current cartesian coordinates              R   N=          60
  1.54219998E+00 -5.65073339E-01 -8.38431021E-02  2.56727548E+00 -2.88443104E+00
 -5.16740440E-01 -2.04427682E+00  1.86621638E+00 -8.69486959E-01 -2.39736739E+00
 -2.34929247E+00  7.98861134E-01  3.32537472E+00  1.31356654E+00  2.40432771E-01
  5.62876083E+00  1.00561791E-01  3.05371699E-03 -1.11560481E+00 -3.39235938E-01
 -4.69362356E-02  2.74754613E+00  4.01511112E+00  8.15739109E-01  5.06330949E+00
 -2.45528544E+00 -4.65451414E-01 -4.57519317E+00  2.06512652E+00 -8.28115397E-01
 -4.92069306E+00 -2.11181318E+00  7.50685637E-01 -6.12548074E+00  8.86684795E-02
 -5.21810672E-02  7.46982126E+00  9.73062337E-01  1.75621717E-01  1.91464881E+00
  4.98642983E+00 -8.02100820E-01  1.42569343E+00  4.19580788E+00  2.39433042E+00
  4.50969526E+00  4.95963991E+00  1.33610296E+00  6.34220683E+00 -4.01983582E+00
 -7.86563338E-01 -5.34884012E+00  3.85791244E+00 -1.47340142E+00 -5.98748174E+00
 -3.74187798E+00  1.41001842E+00 -8.16867884E+00  2.56725341E-01 -5.89050853E-02
Force Field                                I                0
Int Atom Types                             I   N=          20
           0           0           0           0           0           0
           0           0           0           0           0           0
           0           0           0           0           0           0
           0           0
MM charges                                 R   N=          20
  0.00000000E+00  0.00000000E+00  0.00000000E+00  0.00000000E+00  0.00000000E+00
  0.00000000E+00  0.00000000E+00  0.00000000E+00  0.00000000E+00  0.00000000E+00
  0.00000000E+00  0.00000000E+00  0.00000000E+00  0.00000000E+00  0.00000000E+00
  0.00000000E+00  0.00000000E+00  0.00000000E+00  0.00000000E+00  0.00000000E+00
Integer atomic weights                     I   N=          20
          14          14          14          14          12          12
          12          12          12          12          12          12
           1           1           1           1           1           1
           1           1
Real atomic weights                        R   N=          20
  1.40030740E+01  1.40030740E+01  1.40030740E+01  1.40030740E+01  1.20000000E+01
  1.20000000E+01  1.20000000E+01  1.20000000E+01  1.20000000E+01  1.20000000E+01
  1.20000000E+01  1.20000000E+01  1.00782504E+00  1.00782504E+00  1.00782504E+00
  1.00782504E+00  1.00782504E+00  1.00782504E+00  1.00782504E+00  1.00782504E+00
Atom fragment info                         I   N=          20
           0           0           0           0           0           0
           0           0           0           0           0           0
           0           0           0           0           0           0
           0           0
Atom residue num                           I   N=          20
           0           0           0           0           0           0
           0           0           0           0           0           0
           0           0           0           0           0           0
           0           0
Nuclear spins                              I   N=          20
           2           2           2           2           0           0
           0           0           0           0           0           0
           1           1           1           1           1           1
           1           1
Nuclear ZEff                               R   N=          20
 -4.55000000E+00 -4.55000000E+00 -4.55000000E+00 -4.55000000E+00 -3.60000000E+00
 -3.60000000E+00 -3.60000000E+00 -3.60000000E+00 -3.60000000E+00 -3.60000000E+00
 -3.60000000E+00 -3.60000000E+00 -1.00000000E+00 -1.00000000E+00 -1.00000000E+00
 -1.00000000E+00 -1.00000000E+00 -1.00000000E+00 -1.00000000E+00 -1.00000000E+00
Nuclear QMom                               R   N=          20
  2.04400000E+00  2.04400000E+00  2.04400000E+00  2.04400000E+00  0.00000000E+00
  0.00000000E+00  0.00000000E+00  0.00000000E+00  0.00000000E+00  0.00000000E+00
  0.00000000E+00  0.00000000E+00  0.00000000E+00  0.00000000E+00  0.00000000E+00
  0.00000000E+00  0.00000000E+00  0.00000000E+00  0.00000000E+00  0.00000000E+00
Nuclear GFac                               R   N=          20
  4.03761000E-01  4.03761000E-01  4.03761000E-01  4.03761000E-01  0.00000000E+00
  0.00000000E+00  0.00000000E+00  0.00000000E+00  0.00000000E+00  0.00000000E+00
  0.00000000E+00  0.00000000E+00  2.79284600E+00  2.79284600E+00  2.79284600E+00
  2.79284600E+00  2.79284600E+00  2.79284600E+00  2.79284600E+00  2.79284600E+00
MicOpt                                     I   N=          20
          -1          -1          -1          -1          -1          -1
          -1          -1          -1          -1          -1          -1
          -1          -1          -1          -1          -1          -1
          -1          -1
Number of contracted shells                I               64
Number of primitive shells                 I              164
Pure/Cartesian d shells                    I                1
Pure/Cartesian f shells                    I                0
Highest angular momentum                   I                2
Largest degree of contraction              I                6
Shell types                                I   N=          64
           0          -1          -1           2           0          -1
          -1           2           0          -1          -1           2
           0          -1          -1           2           0          -1
          -1           2           0          -1          -1           2
           0          -1          -1           2           0          -1
          -1           2           0          -1          -1           2
           0          -1          -1           2           0          -1
          -1           2           0          -1          -1           2
           0           0           0           0           0           0
           0           0           0           0           0           0
           0           0           0           0
Number of primitives per shell             I   N=          64
           6           3           1           1           6           3
           1           1           6           3           1           1
           6           3           1           1           6           3
           1           1           6           3           1           1
           6           3           1           1           6           3
           1           1           6           3           1           1
           6           3           1           1           6           3
           1           1           6           3           1           1
           3           1           3           1           3           1
           3           1           3           1           3           1
           3           1           3           1
Shell to atom map                          I   N=          64
           1           1           1           1           2           2
           2           2           3           3           3           3
           4           4           4           4           5           5
           5           5           6           6           6           6
           7           7           7           7           8           8
           8           8           9           9           9           9
          10          10          10          10          11          11
          11          11          12          12          12          12
          13          13          14          14          15          15
          16          16          17          17          18          18
          19          19          20          20
Primitive exponents                        R   N=         164
  4.17351146E+03  6.27457911E+02  1.42902093E+02  4.02343293E+01  1.28202129E+01
  4.39043701E+00  1.16263619E+01  2.71627981E+00  7.72218397E-01  2.12031498E-01
  8.00000000E-01  4.17351146E+03  6.27457911E+02  1.42902093E+02  4.02343293E+01
  1.28202129E+01  4.39043701E+00  1.16263619E+01  2.71627981E+00  7.72218397E-01
  2.12031498E-01  8.00000000E-01  4.17351146E+03  6.27457911E+02  1.42902093E+02
  4.02343293E+01  1.28202129E+01  4.39043701E+00  1.16263619E+01  2.71627981E+00
  7.72218397E-01  2.12031498E-01  8.00000000E-01  4.17351146E+03  6.27457911E+02
  1.42902093E+02  4.02343293E+01  1.28202129E+01  4.39043701E+00  1.16263619E+01
  2.71627981E+00  7.72218397E-01  2.12031498E-01  8.00000000E-01  3.04752488E+03
  4.57369518E+02  1.03948685E+02  2.92101553E+01  9.28666296E+00  3.16392696E+00
  7.86827235E+00  1.88128854E+00  5.44249258E-01  1.68714478E-01  8.00000000E-01
  3.04752488E+03  4.57369518E+02  1.03948685E+02  2.92101553E+01  9.28666296E+00
  3.16392696E+00  7.86827235E+00  1.88128854E+00  5.44249258E-01  1.68714478E-01
  8.00000000E-01  3.04752488E+03  4.57369518E+02  1.03948685E+02  2.92101553E+01
  9.28666296E+00  3.16392696E+00  7.86827235E+00  1.88128854E+00  5.44249258E-01
  1.68714478E-01  8.00000000E-01  3.04752488E+03  4.57369518E+02  1.03948685E+02
  2.92101553E+01  9.28666296E+00  3.16392696E+00  7.86827235E+00  1.88128854E+00
  5.44249258E-01  1.68714478E-01  8.00000000E-01  3.04752488E+03  4.57369518E+02
  1.03948685E+02  2.92101553E+01  9.28666296E+00  3.16392696E+00  7.86827235E+00
  1.88128854E+00  5.44249258E-01  1.68714478E-01  8.00000000E-01  3.04752488E+03
  4.57369518E+02  1.03948685E+02  2.92101553E+01  9.28666296E+00  3.16392696E+00
  7.86827235E+00  1.88128854E+00  5.44249258E-01  1.68714478E-01  8.00000000E-01
  3.04752488E+03  4.57369518E+02  1.03948685E+02  2.92101553E+01  9.28666296E+00
  3.16392696E+00  7.86827235E+00  1.88128854E+00  5.44249258E-01  1.68714478E-01
  8.00000000E-01  3.04752488E+03  4.57369518E+02  1.03948685E+02  2.92101553E+01
  9.28666296E+00  3.16392696E+00  7.86827235E+00  1.88128854E+00  5.44249258E-01
  1.68714478E-01  8.00000000E-01  1.87311370E+01  2.82539436E+00  6.40121692E-01
  1.61277759E-01  1.87311370E+01  2.82539436E+00  6.40121692E-01  1.61277759E-01
  1.87311370E+01  2.82539436E+00  6.40121692E-01  1.61277759E-01  1.87311370E+01
  2.82539436E+00  6.40121692E-01  1.61277759E-01  1.87311370E+01  2.82539436E+00
  6.40121692E-01  1.61277759E-01  1.87311370E+01  2.82539436E+00  6.40121692E-01
  1.61277759E-01  1.87311370E+01  2.82539436E+00  6.40121692E-01  1.61277759E-01
  1.87311370E+01  2.82539436E+00  6.40121692E-01  1.61277759E-01
Contraction coefficients                   R   N=         164
  1.83477216E-03  1.39946270E-02  6.85865518E-02  2.32240873E-01  4.69069948E-01
  3.60455199E-01 -1.14961182E-01 -1.69117479E-01  1.14585195E+00  1.00000000E+00
  1.00000000E+00  1.83477216E-03  1.39946270E-02  6.85865518E-02  2.32240873E-01
  4.69069948E-01  3.60455199E-01 -1.14961182E-01 -1.69117479E-01  1.14585195E+00
  1.00000000E+00  1.00000000E+00  1.83477216E-03  1.39946270E-02  6.85865518E-02
  2.32240873E-01  4.69069948E-01  3.60455199E-01 -1.14961182E-01 -1.69117479E-01
  1.14585195E+00  1.00000000E+00  1.00000000E+00  1.83477216E-03  1.39946270E-02
  6.85865518E-02  2.32240873E-01  4.69069948E-01  3.60455199E-01 -1.14961182E-01
 -1.69117479E-01  1.14585195E+00  1.00000000E+00  1.00000000E+00  1.83473713E-03
  1.40373228E-02  6.88426223E-02  2.32184443E-01  4.67941348E-01  3.62311985E-01
 -1.19332420E-01 -1.60854152E-01  1.14345644E+00  1.00000000E+00  1.00000000E+00
  1.83473713E-03  1.40373228E-02  6.88426223E-02  2.32184443E-01  4.67941348E-01
  3.62311985E-01 -1.19332420E-01 -1.60854152E-01  1.14345644E+00  1.00000000E+00
  1.00000000E+00  1.83473713E-03  1.40373228E-02  6.88426223E-02  2.32184443E-01
  4.67941348E-01  3.62311985E-01 -1.19332420E-01 -1.60854152E-01  1.14345644E+00
  1.00000000E+00  1.00000000E+00  1.83473713E-03  1.40373228E-02  6.88426223E-02
  2.32184443E-01  4.67941348E-01  3.62311985E-01 -1.19332420E-01 -1.60854152E-01
  1.14345644E+00  1.00000000E+00  1.00000000E+00  1.83473713E-03  1.40373228E-02
  6.88426223E-02  2.32184443E-01  4.67941348E-01  3.62311985E-01 -1.19332420E-01
 -1.60854152E-01  1.14345644E+00  1.00000000E+00  1.00000000E+00  1.83473713E-03
  1.40373228E-02  6.88426223E-02  2.32184443E-01  4.67941348E-01  3.62311985E-01
 -1.19332420E-01 -1.60854152E-01  1.14345644E+00  1.00000000E+00  1.00000000E+00
  1.83473713E-03  1.40373228E-02  6.88426223E-02  2.32184443E-01  4.67941348E-01
  3.62311985E-01 -1.19332420E-01 -1.60854152E-01  1.14345644E+00  1.00000000E+00
  1.00000000E+00  1.83473713E-03  1.40373228E-02  6.88426223E-02  2.32184443E-01
  4.67941348E-01  3.62311985E-01 -1.19332420E-01 -1.60854152E-01  1.14345644E+00
  1.00000000E+00  1.00000000E+00  3.34946043E-02  2.34726953E-01  8.13757326E-01
  1.00000000E+00  3.34946043E-02  2.34726953E-01  8.13757326E-01  1.00000000E+00
  3.34946043E-02  2.34726953E-01  8.13757326E-01  1.00000000E+00  3.34946043E-02
  2.34726953E-01  8.13757326E-01  1.00000000E+00  3.34946043E-02  2.34726953E-01
  8.13757326E-01  1.00000000E+00  3.34946043E-02  2.34726953E-01  8.13757326E-01
  1.00000000E+00  3.34946043E-02  2.34726953E-01  8.13757326E-01  1.00000000E+00
  3.34946043E-02  2.34726953E-01  8.13757326E-01  1.00000000E+00
P(S=P) Contraction coefficients            R   N=         164
  0.00000000E+00  0.00000000E+00  0.00000000E+00  0.00000000E+00  0.00000000E+00
  0.00000000E+00  6.75797439E-02  3.23907296E-01  7.40895140E-01  1.00000000E+00
  0.00000000E+00  0.00000000E+00  0.00000000E+00  0.00000000E+00  0.00000000E+00
  0.00000000E+00  0.00000000E+00  6.75797439E-02  3.23907296E-01  7.40895140E-01
  1.00000000E+00  0.00000000E+00  0.00000000E+00  0.00000000E+00  0.00000000E+00
  0.00000000E+00  0.00000000E+00  0.00000000E+00  6.75797439E-02  3.23907296E-01
  7.40895140E-01  1.00000000E+00  0.00000000E+00  0.00000000E+00  0.00000000E+00
  0.00000000E+00  0.00000000E+00  0.00000000E+00  0.00000000E+00  6.75797439E-02
  3.23907296E-01  7.40895140E-01  1.00000000E+00  0.00000000E+00  0.00000000E+00
  0.00000000E+00  0.00000000E+00  0.00000000E+00  0.00000000E+00  0.00000000E+00
  6.89990666E-02  3.16423961E-01  7.44308291E-01  1.00000000E+00  0.00000000E+00
  0.00000000E+00  0.00000000E+00  0.00000000E+00  0.00000000E+00  0.00000000E+00
  0.00000000E+00  6.89990666E-02  3.16423961E-01  7.44308291E-01  1.00000000E+00
  0.00000000E+00  0.00000000E+00  0.00000000E+00  0.00000000E+00  0.00000000E+00
  0.00000000E+00  0.00000000E+00  6.89990666E-02  3.16423961E-01  7.44308291E-01
  1.00000000E+00  0.00000000E+00  0.00000000E+00  0.00000000E+00  0.00000000E+00
  0.00000000E+00  0.00000000E+00  0.00000000E+00  6.89990666E-02  3.16423961E-01
  7.44308291E-01  1.00000000E+00  0.00000000E+00  0.00000000E+00  0.00000000E+00
  0.00000000E+00  0.00000000E+00  0.00000000E+00  0.00000000E+00  6.89990666E-02
  3.16423961E-01  7.44308291E-01  1.00000000E+00  0.00000000E+00  0.00000000E+00
  0.00000000E+00  0.00000000E+00  0.00000000E+00  0.00000000E+00  0.00000000E+00
  6.89990666E-02  3.16423961E-01  7.44308291E-01  1.00000000E+00  0.00000000E+00
  0.00000000E+00  0.00000000E+00  0.00000000E+00  0.00000000E+00  0.00000000E+00
  0.00000000E+00  6.89990666E-02  3.16423961E-01  7.44308291E-01  1.00000000E+00
  0.00000000E+00  0.00000000E+00  0.00000000E+00  0.00000000E+00  0.00000000E+00
  0.00000000E+00  0.00000000E+00  6.89990666E-02  3.16423961E-01  7.44308291E-01
  1.00000000E+00  0.00000000E+00  0.00000000E+00  0.00000000E+00  0.00000000E+00
  0.00000000E+00  0.00000000E+00  0.00000000E+00  0.00000000E+00  0.00000000E+00
  0.00000000E+00  0.00000000E+00  0.00000000E+00  0.00000000E+00  0.00000000E+00
  0.00000000E+00  0.00000000E+00  0.00000000E+00  0.00000000E+00  0.00000000E+00
  0.00000000E+00  0.00000000E+00  0.00000000E+00  0.00000000E+00  0.00000000E+00
  0.00000000E+00  0.00000000E+00  0.00000000E+00  0.00000000E+00  0.00000000E+00
  0.00000000E+00  0.00000000E+00  0.00000000E+00  0.00000000E+00
Coordinates of each shell                  R   N=         192
  1.54219998E+00 -5.65073339E-01 -8.38431021E-02  1.54219998E+00 -5.65073339E-01
 -8.38431021E-02  1.54219998E+00 -5.65073339E-01 -8.38431021E-02  1.54219998E+00
 -5.65073339E-01 -8.38431021E-02  2.56727548E+00 -2.88443104E+00 -5.16740440E-01
  2.56727548E+00 -2.88443104E+00 -5.16740440E-01  2.56727548E+00 -2.88443104E+00
 -5.16740440E-01  2.56727548E+00 -2.88443104E+00 -5.16740440E-01 -2.04427682E+00
  1.86621638E+00 -8.69486959E-01 -2.04427682E+00  1.86621638E+00 -8.69486959E-01
 -2.04427682E+00  1.86621638E+00 -8.69486959E-01 -2.04427682E+00  1.86621638E+00
 -8.69486959E-01 -2.39736739E+00 -2.34929247E+00  7.98861134E-01 -2.39736739E+00
 -2.34929247E+00  7.98861134E-01 -2.39736739E+00 -2.34929247E+00  7.98861134E-01
 -2.39736739E+00 -2.34929247E+00  7.98861134E-01  3.32537472E+00  1.31356654E+00
  2.40432771E-01  3.32537472E+00  1.31356654E+00  2.40432771E-01  3.32537472E+00
  1.31356654E+00  2.40432771E-01  3.32537472E+00  1.31356654E+00  2.40432771E-01
  5.62876083E+00  1.00561791E-01  3.05371699E-03  5.62876083E+00  1.00561791E-01
  3.05371699E-03  5.62876083E+00  1.00561791E-01  3.05371699E-03  5.62876083E+00
  1.00561791E-01  3.05371699E-03 -1.11560481E+00 -3.39235938E-01 -4.69362356E-02
 -1.11560481E+00 -3.39235938E-01 -4.69362356E-02 -1.11560481E+00 -3.39235938E-01
 -4.69362356E-02 -1.11560481E+00 -3.39235938E-01 -4.69362356E-02  2.74754613E+00
  4.01511112E+00  8.15739109E-01  2.74754613E+00  4.01511112E+00  8.15739109E-01
  2.74754613E+00  4.01511112E+00  8.15739109E-01  2.74754613E+00  4.01511112E+00
  8.15739109E-01  5.06330949E+00 -2.45528544E+00 -4.65451414E-01  5.06330949E+00
 -2.45528544E+00 -4.65451414E-01  5.06330949E+00 -2.45528544E+00 -4.65451414E-01
  5.06330949E+00 -2.45528544E+00 -4.65451414E-01 -4.57519317E+00  2.06512652E+00
 -8.28115397E-01 -4.57519317E+00  2.06512652E+00 -8.28115397E-01 -4.57519317E+00
  2.06512652E+00 -8.28115397E-01 -4.57519317E+00  2.06512652E+00 -8.28115397E-01
 -4.92069306E+00 -2.11181318E+00  7.50685637E-01 -4.92069306E+00 -2.11181318E+00
  7.50685637E-01 -4.92069306E+00 -2.11181318E+00  7.50685637E-01 -4.92069306E+00
 -2.11181318E+00  7.50685637E-01 -6.12548074E+00  8.86684795E-02 -5.21810672E-02
 -6.12548074E+00  8.86684795E-02 -5.21810672E-02 -6.12548074E+00  8.86684795E-02
 -5.21810672E-02 -6.12548074E+00  8.86684795E-02 -5.21810672E-02  7.46982126E+00
  9.73062337E-01  1.75621717E-01  7.46982126E+00  9.73062337E-01  1.75621717E-01
  1.91464881E+00  4.98642983E+00 -8.02100820E-01  1.91464881E+00  4.98642983E+00
 -8.02100820E-01  1.42569343E+00  4.19580788E+00  2.39433042E+00  1.42569343E+00
  4.19580788E+00  2.39433042E+00  4.50969526E+00  4.95963991E+00  1.33610296E+00
  4.50969526E+00  4.95963991E+00  1.33610296E+00  6.34220683E+00 -4.01983582E+00
 -7.86563338E-01  6.34220683E+00 -4.01983582E+00 -7.86563338E-01 -5.34884012E+00
  3.85791244E+00 -1.47340142E+00 -5.34884012E+00  3.85791244E+00 -1.47340142E+00
 -5.98748174E+00 -3.74187798E+00  1.41001842E+00 -5.98748174E+00 -3.74187798E+00
  1.41001842E+00 -8.16867884E+00  2.56725341E-01 -5.89050853E-02 -8.16867884E+00
  2.56725341E-01 -5.89050853E-02
Constraint Structure                       R   N=          60
  1.54219998E+00 -5.65073339E-01 -8.38431021E-02  2.56727548E+00 -2.88443104E+00
 -5.16740440E-01 -2.04427682E+00  1.86621638E+00 -8.69486959E-01 -2.39736739E+00
 -2.34929247E+00  7.98861134E-01  3.32537472E+00  1.31356654E+00  2.40432771E-01
  5.62876083E+00  1.00561791E-01  3.05371699E-03 -1.11560481E+00 -3.39235938E-01
 -4.69362356E-02  2.74754613E+00  4.01511112E+00  8.15739109E-01  5.06330949E+00
 -2.45528544E+00 -4.65451414E-01 -4.57519317E+00  2.06512652E+00 -8.28115397E-01
 -4.92069306E+00 -2.11181318E+00  7.50685637E-01 -6.12548074E+00  8.86684795E-02
 -5.21810672E-02  7.46982126E+00  9.73062337E-01  1.75621717E-01  1.91464881E+00
  4.98642983E+00 -8.02100820E-01  1.42569343E+00  4.19580788E+00  2.39433042E+00
  4.50969526E+00  4.95963991E+00  1.33610296E+00  6.34220683E+00 -4.01983582E+00
 -7.86563338E-01 -5.34884012E+00  3.85791244E+00 -1.47340142E+00 -5.98748174E+00
 -3.74187798E+00  1.41001842E+00 -8.16867884E+00  2.56725341E-01 -5.89050853E-02
Num ILSW                                   I              100
ILSW                                       I   N=         100
           0           1           0           1           2           0
           0           0           0           0           0          -1
           0           0           0           0           0           0
           0           0           0           0           1           0
           1           0           0           0           0           0
           0           0      100000           0          -1           0
           0           0           0           0           0           0
           0           0           0           1           1           0
           0           0           1           0           0           0
           0           0           4          40           0           0
           0           0           0           0           0           0
           0           0           0           0           0           0
           0           0           0           0           0           0
           0           0           0           0           0           0
           0           0           0           0           0           0
           0           0           0           0           0           0
           0           0           0           0
Num RLSW                                   I               40
RLSW                                       R   N=          40
  1.00000000E+00  1.00000000E+00  1.00000000E+00  1.00000000E+00  1.00000000E+00
  0.00000000E+00  0.00000000E+00  1.00000000E+00  0.00000000E+00  0.00000000E+00
  0.00000000E+00  0.00000000E+00  1.00000000E+00  0.00000000E+00  0.00000000E+00
  0.00000000E+00  0.00000000E+00  1.00000000E+00  0.00000000E+00  0.00000000E+00
  0.00000000E+00  0.00000000E+00  1.00000000E+00  0.00000000E+00  0.00000000E+00
  0.00000000E+00  0.00000000E+00  1.00000000E+00  0.00000000E+00  0.00000000E+00
  0.00000000E+00  0.00000000E+00  0.00000000E+00  0.00000000E+00  0.00000000E+00
  0.00000000E+00  0.00000000E+00  0.00000000E+00  1.00000000E+00  1.00000000E+00
MxBond                                     I                4
NBond                                      I   N=          20
           3           2           2           2           3           3
           3           4           3           3           3           3
           1           1           1           1           1           1
           1           1
IBond                                      I   N=          80
           2           5           7           0           1           9
           0           0           7          10           0           0
           7          11           0           0           1           6
           8           0           5           9          13           0
           1           3           4           0           5          14
          15          16           2           6          17           0
           3          12          18           0           4          12
          19           0          10          11          20           0
           6           0           0           0           8           0
           0           0           8           0           0           0
           8           0           0           0           9           0
           0           0          10           0           0           0
          11           0           0           0          12           0
           0           0
RBond                                      R   N=          80
  1.50000000E+00  1.50000000E+00  1.00000000E+00  0.00000000E+00  1.50000000E+00
  1.50000000E+00  0.00000000E+00  0.00000000E+00  1.50000000E+00  1.50000000E+00
  0.00000000E+00  0.00000000E+00  1.50000000E+00  1.50000000E+00  0.00000000E+00
  0.00000000E+00  1.50000000E+00  1.50000000E+00  1.00000000E+00  0.00000000E+00
  1.50000000E+00  1.50000000E+00  1.00000000E+00  0.00000000E+00  1.00000000E+00
  1.50000000E+00  1.50000000E+00  0.00000000E+00  1.00000000E+00  1.00000000E+00
  1.00000000E+00  1.00000000E+00  1.50000000E+00  1.50000000E+00  1.00000000E+00
  0.00000000E+00  1.50000000E+00  1.50000000E+00  1.00000000E+00  0.00000000E+00
  1.50000000E+00  1.50000000E+00  1.00000000E+00  0.00000000E+00  1.50000000E+00
  1.50000000E+00  1.00000000E+00  0.00000000E+00  1.00000000E+00  0.00000000E+00
  0.00000000E+00  0.00000000E+00  1.00000000E+00  0.00000000E+00  0.00000000E+00
  0.00000000E+00  1.00000000E+00  0.00000000E+00  0.00000000E+00  0.00000000E+00
  1.00000000E+00  0.00000000E+00  0.00000000E+00  0.00000000E+00  1.00000000E+00
  0.00000000E+00  0.00000000E+00  0.00000000E+00  1.00000000E+00  0.00000000E+00
  0.00000000E+00  0.00000000E+00  1.00000000E+00  0.00000000E+00  0.00000000E+00
  0.00000000E+00  1.00000000E+00  0.00000000E+00  0.00000000E+00  0.00000000E+00
Virial Ratio                               R      2.002695376790080E+00
SCF Energy                                 R     -5.253670045552850E+02
MP2 Energy                                 R     -5.270326567179546E+02
Total Energy                               R     -5.270326567179546E+02
Post-SCF wavefunction norm                 R      1.778722302408591E+00
RMS Force                                  R      7.863625213489840E-07
RMS Density                                R      3.262336562298886E-09
External E-field                           R   N=          35
  0.00000000E+00  0.00000000E+00  0.00000000E+00  0.00000000E+00  0.00000000E+00
  0.00000000E+00  0.00000000E+00  0.00000000E+00  0.00000000E+00  0.00000000E+00
  0.00000000E+00  0.00000000E+00  0.00000000E+00  0.00000000E+00  0.00000000E+00
  0.00000000E+00  0.00000000E+00  0.00000000E+00  0.00000000E+00  0.00000000E+00
  0.00000000E+00  0.00000000E+00  0.00000000E+00  0.00000000E+00  0.00000000E+00
  0.00000000E+00  0.00000000E+00  0.00000000E+00  0.00000000E+00  0.00000000E+00
  0.00000000E+00  0.00000000E+00  0.00000000E+00  0.00000000E+00  0.00000000E+00
IOpCl                                      I                0
IROHF                                      I                0
Alpha Orbital Energies                     R   N=         196
 -1.56440680E+01 -1.55866449E+01 -1.55820880E+01 -1.55811490E+01 -1.13673804E+01
 -1.13121252E+01 -1.13098396E+01 -1.12834844E+01 -1.12545075E+01 -1.12515325E+01
 -1.12332843E+01 -1.12158088E+01 -1.38348390E+00 -1.31151865E+00 -1.20501801E+00
 -1.12675922E+00 -1.08112206E+00 -1.04272381E+00 -9.55758461E-01 -9.07023929E-01
 -8.94172054E-01 -7.96702432E-01 -7.91820105E-01 -7.09956676E-01 -7.04210360E-01
 -6.79740735E-01 -6.33330638E-01 -6.30732666E-01 -6.04838174E-01 -5.86716894E-01
 -5.83688116E-01 -5.71889426E-01 -5.60887914E-01 -5.48503164E-01 -5.32119095E-01
 -4.87810795E-01 -4.48866500E-01 -4.26244268E-01 -4.15580004E-01 -4.03745271E-01
 -3.32724729E-01 -3.25948571E-01  9.74569330E-02  1.05220180E-01  1.90105309E-01
  2.38058792E-01  2.47686589E-01  2.61804580E-01  2.78210794E-01  2.87023626E-01
  3.05024922E-01  3.08135118E-01  3.21382540E-01  3.31652739E-01  3.45357832E-01
  3.88915699E-01  3.97632068E-01  4.10019189E-01  4.33465241E-01  4.45095769E-01
  4.63082300E-01  5.13749272E-01  5.32658298E-01  5.38229391E-01  5.61793344E-01
  6.09189208E-01  6.52015689E-01  6.68017898E-01  7.20448037E-01  7.35581102E-01
  7.43883990E-01  7.58358667E-01  7.74075780E-01  7.89742426E-01  7.98813191E-01
  8.08511303E-01  8.09685786E-01  8.15583668E-01  8.19566968E-01  8.27063525E-01
  8.51588247E-01  8.85546183E-01  8.97473197E-01  8.98784873E-01  9.08373867E-01
  9.16066941E-01  9.30941452E-01  9.47002378E-01  9.94693414E-01  1.01155602E+00
  1.01827486E+00  1.06286081E+00  1.06817035E+00  1.09131324E+00  1.09333217E+00
  1.10809838E+00  1.11809405E+00  1.13033768E+00  1.13476343E+00  1.13833398E+00
  1.16318656E+00  1.17543354E+00  1.18557529E+00  1.19226022E+00  1.20169105E+00
  1.21466023E+00  1.22177511E+00  1.27116908E+00  1.28763613E+00  1.31276624E+00
  1.32367699E+00  1.35395228E+00  1.37275098E+00  1.40526930E+00  1.44035428E+00
  1.46472227E+00  1.51207208E+00  1.53273465E+00  1.62091708E+00  1.63650178E+00
  1.65478434E+00  1.67160180E+00  1.68147993E+00  1.69819417E+00  1.72585528E+00