108_2-Propanimine Gaussian SP Calculation on node142.bme.utexas.edu     
Freq      RMP2-FC                                                     6-31G(d)            
Number of atoms                            I               11
Info1-9                                    I   N=           9
          22          21        1002           0           0         100
           6           2           1
Charge                                     I                0
Multiplicity                               I                1
Number of electrons                        I               32
Number of alpha electrons                  I               16
Number of beta electrons                   I               16
Number of basis functions                  I               74
Number of independent functions            I               74
Number of point charges in /Mol/           I                0
Number of translation vectors              I                0
Atomic numbers                             I   N=          11
           7           6           6           6           1           1
           1           1           1           1           1
Nuclear charges                            R   N=          11
  7.00000000E+00  6.00000000E+00  6.00000000E+00  6.00000000E+00  1.00000000E+00
  1.00000000E+00  1.00000000E+00  1.00000000E+00  1.00000000E+00  1.00000000E+00
  1.00000000E+00
Current cartesian coordinates              R   N=          33
 -7.58050731E-02  2.72436224E+00  3.58252766E-07 -7.39294836E-03  2.93643962E-01
 -9.09101707E-07  2.53227051E+00 -9.83752489E-01  1.30104261E-18 -2.27621765E+00
 -1.43569191E+00  1.97779933E-07  4.02073288E+00  4.41218393E-01 -3.03403673E-07
  2.73904711E+00 -2.19481796E+00  1.66593611E+00  2.73904836E+00 -2.19482079E+00
 -1.66593382E+00 -4.04136266E+00 -3.62054255E-01 -2.98095651E-06 -2.24757986E+00
 -2.66493282E+00  1.66479907E+00 -2.24757647E+00 -2.66493680E+00 -1.66479571E+00
 -1.92363329E+00  3.32461118E+00 -5.64727222E-07
Force Field                                I                0
Int Atom Types                             I   N=          11
           0           0           0           0           0           0
           0           0           0           0           0
MM charges                                 R   N=          11
  0.00000000E+00  0.00000000E+00  0.00000000E+00  0.00000000E+00  0.00000000E+00
  0.00000000E+00  0.00000000E+00  0.00000000E+00  0.00000000E+00  0.00000000E+00
  0.00000000E+00
Integer atomic weights                     I   N=          11
          14          12          12          12           1           1
           1           1           1           1           1
Real atomic weights                        R   N=          11
  1.40030740E+01  1.20000000E+01  1.20000000E+01  1.20000000E+01  1.00782504E+00
  1.00782504E+00  1.00782504E+00  1.00782504E+00  1.00782504E+00  1.00782504E+00
  1.00782504E+00
Atom fragment info                         I   N=          11
           0           0           0           0           0           0
           0           0           0           0           0
Atom residue num                           I   N=          11
           0           0           0           0           0           0
           0           0           0           0           0
Nuclear spins                              I   N=          11
           2           0           0           0           1           1
           1           1           1           1           1
Nuclear ZEff                               R   N=          11
 -4.55000000E+00 -3.60000000E+00 -3.60000000E+00 -3.60000000E+00 -1.00000000E+00
 -1.00000000E+00 -1.00000000E+00 -1.00000000E+00 -1.00000000E+00 -1.00000000E+00
 -1.00000000E+00
Nuclear QMom                               R   N=          11
  2.04400000E+00  0.00000000E+00  0.00000000E+00  0.00000000E+00  0.00000000E+00
  0.00000000E+00  0.00000000E+00  0.00000000E+00  0.00000000E+00  0.00000000E+00
  0.00000000E+00
Nuclear GFac                               R   N=          11
  4.03761000E-01  0.00000000E+00  0.00000000E+00  0.00000000E+00  2.79284600E+00
  2.79284600E+00  2.79284600E+00  2.79284600E+00  2.79284600E+00  2.79284600E+00
  2.79284600E+00
MicOpt                                     I   N=          11
          -1          -1          -1          -1          -1          -1
          -1          -1          -1          -1          -1
Number of contracted shells                I               30
Number of primitive shells                 I               72
Pure/Cartesian d shells                    I                1
Pure/Cartesian f shells                    I                0
Highest angular momentum                   I                2
Largest degree of contraction              I                6
Shell types                                I   N=          30
           0          -1          -1           2           0          -1
          -1           2           0          -1          -1           2
           0          -1          -1           2           0           0
           0           0           0           0           0           0
           0           0           0           0           0           0
Number of primitives per shell             I   N=          30
           6           3           1           1           6           3
           1           1           6           3           1           1
           6           3           1           1           3           1
           3           1           3           1           3           1
           3           1           3           1           3           1
Shell to atom map                          I   N=          30
           1           1           1           1           2           2
           2           2           3           3           3           3
           4           4           4           4           5           5
           6           6           7           7           8           8
           9           9          10          10          11          11
Primitive exponents                        R   N=          72
  4.17351146E+03  6.27457911E+02  1.42902093E+02  4.02343293E+01  1.28202129E+01
  4.39043701E+00  1.16263619E+01  2.71627981E+00  7.72218397E-01  2.12031498E-01
  8.00000000E-01  3.04752488E+03  4.57369518E+02  1.03948685E+02  2.92101553E+01
  9.28666296E+00  3.16392696E+00  7.86827235E+00  1.88128854E+00  5.44249258E-01
  1.68714478E-01  8.00000000E-01  3.04752488E+03  4.57369518E+02  1.03948685E+02
  2.92101553E+01  9.28666296E+00  3.16392696E+00  7.86827235E+00  1.88128854E+00
  5.44249258E-01  1.68714478E-01  8.00000000E-01  3.04752488E+03  4.57369518E+02
  1.03948685E+02  2.92101553E+01  9.28666296E+00  3.16392696E+00  7.86827235E+00
  1.88128854E+00  5.44249258E-01  1.68714478E-01  8.00000000E-01  1.87311370E+01
  2.82539436E+00  6.40121692E-01  1.61277759E-01  1.87311370E+01  2.82539436E+00
  6.40121692E-01  1.61277759E-01  1.87311370E+01  2.82539436E+00  6.40121692E-01
  1.61277759E-01  1.87311370E+01  2.82539436E+00  6.40121692E-01  1.61277759E-01
  1.87311370E+01  2.82539436E+00  6.40121692E-01  1.61277759E-01  1.87311370E+01
  2.82539436E+00  6.40121692E-01  1.61277759E-01  1.87311370E+01  2.82539436E+00
  6.40121692E-01  1.61277759E-01
Contraction coefficients                   R   N=          72
  1.83477216E-03  1.39946270E-02  6.85865518E-02  2.32240873E-01  4.69069948E-01
  3.60455199E-01 -1.14961182E-01 -1.69117479E-01  1.14585195E+00  1.00000000E+00
  1.00000000E+00  1.83473713E-03  1.40373228E-02  6.88426223E-02  2.32184443E-01
  4.67941348E-01  3.62311985E-01 -1.19332420E-01 -1.60854152E-01  1.14345644E+00
  1.00000000E+00  1.00000000E+00  1.83473713E-03  1.40373228E-02  6.88426223E-02
  2.32184443E-01  4.67941348E-01  3.62311985E-01 -1.19332420E-01 -1.60854152E-01
  1.14345644E+00  1.00000000E+00  1.00000000E+00  1.83473713E-03  1.40373228E-02
  6.88426223E-02  2.32184443E-01  4.67941348E-01  3.62311985E-01 -1.19332420E-01
 -1.60854152E-01  1.14345644E+00  1.00000000E+00  1.00000000E+00  3.34946043E-02
  2.34726953E-01  8.13757326E-01  1.00000000E+00  3.34946043E-02  2.34726953E-01
  8.13757326E-01  1.00000000E+00  3.34946043E-02  2.34726953E-01  8.13757326E-01
  1.00000000E+00  3.34946043E-02  2.34726953E-01  8.13757326E-01  1.00000000E+00
  3.34946043E-02  2.34726953E-01  8.13757326E-01  1.00000000E+00  3.34946043E-02
  2.34726953E-01  8.13757326E-01  1.00000000E+00  3.34946043E-02  2.34726953E-01
  8.13757326E-01  1.00000000E+00
P(S=P) Contraction coefficients            R   N=          72
  0.00000000E+00  0.00000000E+00  0.00000000E+00  0.00000000E+00  0.00000000E+00
  0.00000000E+00  6.75797439E-02  3.23907296E-01  7.40895140E-01  1.00000000E+00
  0.00000000E+00  0.00000000E+00  0.00000000E+00  0.00000000E+00  0.00000000E+00
  0.00000000E+00  0.00000000E+00  6.89990666E-02  3.16423961E-01  7.44308291E-01
  1.00000000E+00  0.00000000E+00  0.00000000E+00  0.00000000E+00  0.00000000E+00
  0.00000000E+00  0.00000000E+00  0.00000000E+00  6.89990666E-02  3.16423961E-01
  7.44308291E-01  1.00000000E+00  0.00000000E+00  0.00000000E+00  0.00000000E+00
  0.00000000E+00  0.00000000E+00  0.00000000E+00  0.00000000E+00  6.89990666E-02
  3.16423961E-01  7.44308291E-01  1.00000000E+00  0.00000000E+00  0.00000000E+00
  0.00000000E+00  0.00000000E+00  0.00000000E+00  0.00000000E+00  0.00000000E+00
  0.00000000E+00  0.00000000E+00  0.00000000E+00  0.00000000E+00  0.00000000E+00
  0.00000000E+00  0.00000000E+00  0.00000000E+00  0.00000000E+00  0.00000000E+00
  0.00000000E+00  0.00000000E+00  0.00000000E+00  0.00000000E+00  0.00000000E+00
  0.00000000E+00  0.00000000E+00  0.00000000E+00  0.00000000E+00  0.00000000E+00
  0.00000000E+00  0.00000000E+00
Coordinates of each shell                  R   N=          90
 -7.58050731E-02  2.72436224E+00  3.58252766E-07 -7.58050731E-02  2.72436224E+00
  3.58252766E-07 -7.58050731E-02  2.72436224E+00  3.58252766E-07 -7.58050731E-02
  2.72436224E+00  3.58252766E-07 -7.39294836E-03  2.93643962E-01 -9.09101707E-07
 -7.39294836E-03  2.93643962E-01 -9.09101707E-07 -7.39294836E-03  2.93643962E-01
 -9.09101707E-07 -7.39294836E-03  2.93643962E-01 -9.09101707E-07  2.53227051E+00
 -9.83752489E-01  1.30104261E-18  2.53227051E+00 -9.83752489E-01  1.30104261E-18
  2.53227051E+00 -9.83752489E-01  1.30104261E-18  2.53227051E+00 -9.83752489E-01
  1.30104261E-18 -2.27621765E+00 -1.43569191E+00  1.97779933E-07 -2.27621765E+00
 -1.43569191E+00  1.97779933E-07 -2.27621765E+00 -1.43569191E+00  1.97779933E-07
 -2.27621765E+00 -1.43569191E+00  1.97779933E-07  4.02073288E+00  4.41218393E-01
 -3.03403673E-07  4.02073288E+00  4.41218393E-01 -3.03403673E-07  2.73904711E+00
 -2.19481796E+00  1.66593611E+00  2.73904711E+00 -2.19481796E+00  1.66593611E+00
  2.73904836E+00 -2.19482079E+00 -1.66593382E+00  2.73904836E+00 -2.19482079E+00
 -1.66593382E+00 -4.04136266E+00 -3.62054255E-01 -2.98095651E-06 -4.04136266E+00
 -3.62054255E-01 -2.98095651E-06 -2.24757986E+00 -2.66493282E+00  1.66479907E+00
 -2.24757986E+00 -2.66493282E+00  1.66479907E+00 -2.24757647E+00 -2.66493680E+00
 -1.66479571E+00 -2.24757647E+00 -2.66493680E+00 -1.66479571E+00 -1.92363329E+00
  3.32461118E+00 -5.64727222E-07 -1.92363329E+00  3.32461118E+00 -5.64727222E-07
Constraint Structure                       R   N=          33
 -7.58050731E-02  2.72436224E+00  3.58252766E-07 -7.39294836E-03  2.93643962E-01
 -9.09101707E-07  2.53227051E+00 -9.83752489E-01  1.30104261E-18 -2.27621765E+00
 -1.43569191E+00  1.97779933E-07  4.02073288E+00  4.41218393E-01 -3.03403673E-07
  2.73904711E+00 -2.19481796E+00  1.66593611E+00  2.73904836E+00 -2.19482079E+00
 -1.66593382E+00 -4.04136266E+00 -3.62054255E-01 -2.98095651E-06 -2.24757986E+00
 -2.66493282E+00  1.66479907E+00 -2.24757647E+00 -2.66493680E+00 -1.66479571E+00
 -1.92363329E+00  3.32461118E+00 -5.64727222E-07
Num ILSW                                   I              100
ILSW                                       I   N=         100
           0           1           0           0           2           0
           0           0           0           0           0          -1
           0           0           0           0           0           0
           0           0           0           0           1           0
           1           0           0           0           0           0
           0           0      100000           0          -1           0
           0           0           0           0           0           0
           0           0           0           1           1           0
           0           0           1           0           0           0
           0           0           4          40           0           0
           0           0           0           0           0           0
           0           0           0           0           0           0
           0           0           0           0           0           0
           0           0           0           0           0           0
           0           0           0           0           0           0
           0           0           0           0           0           0
           0           0           0           0
Num RLSW                                   I               40
RLSW                                       R   N=          40
  1.00000000E+00  1.00000000E+00  1.00000000E+00  1.00000000E+00  1.00000000E+00
  0.00000000E+00  0.00000000E+00  1.00000000E+00  0.00000000E+00  0.00000000E+00
  0.00000000E+00  0.00000000E+00  1.00000000E+00  0.00000000E+00  0.00000000E+00
  0.00000000E+00  0.00000000E+00  1.00000000E+00  0.00000000E+00  0.00000000E+00
  0.00000000E+00  0.00000000E+00  1.00000000E+00  0.00000000E+00  0.00000000E+00
  0.00000000E+00  0.00000000E+00  1.00000000E+00  0.00000000E+00  0.00000000E+00
  0.00000000E+00  0.00000000E+00  0.00000000E+00  0.00000000E+00  0.00000000E+00
  0.00000000E+00  0.00000000E+00  0.00000000E+00  1.00000000E+00  1.00000000E+00
MxBond                                     I                4
NBond                                      I   N=          11
           2           3           4           4           1           1
           1           1           1           1           1
IBond                                      I   N=          44
           2          11           0           0           1           3
           4           0           2           5           6           7
           2           8           9          10           3           0
           0           0           3           0           0           0
           3           0           0           0           4           0
           0           0           4           0           0           0
           4           0           0           0           1           0
           0           0
RBond                                      R   N=          44
  2.00000000E+00  1.00000000E+00  0.00000000E+00  0.00000000E+00  2.00000000E+00
  1.00000000E+00  1.00000000E+00  0.00000000E+00  1.00000000E+00  1.00000000E+00
  1.00000000E+00  1.00000000E+00  1.00000000E+00  1.00000000E+00  1.00000000E+00
  1.00000000E+00  1.00000000E+00  0.00000000E+00  0.00000000E+00  0.00000000E+00
  1.00000000E+00  0.00000000E+00  0.00000000E+00  0.00000000E+00  1.00000000E+00
  0.00000000E+00  0.00000000E+00  0.00000000E+00  1.00000000E+00  0.00000000E+00
  0.00000000E+00  0.00000000E+00  1.00000000E+00  0.00000000E+00  0.00000000E+00
  0.00000000E+00  1.00000000E+00  0.00000000E+00  0.00000000E+00  0.00000000E+00
  1.00000000E+00  0.00000000E+00  0.00000000E+00  0.00000000E+00
Virial Ratio                               R      2.002116656252480E+00
SCF Energy                                 R     -1.721138183200715E+02
MP2 Energy                                 R     -1.726650884295802E+02
Total Energy                               R     -1.726650884295802E+02
Post-SCF wavefunction norm                 R      1.540421776233717E+00
RMS Force                                  R      9.245737730142185E-08
RMS Density                                R      1.430608209794107E-09
External E-field                           R   N=          35
  0.00000000E+00  0.00000000E+00  0.00000000E+00  0.00000000E+00  0.00000000E+00
  0.00000000E+00  0.00000000E+00  0.00000000E+00  0.00000000E+00  0.00000000E+00
  0.00000000E+00  0.00000000E+00  0.00000000E+00  0.00000000E+00  0.00000000E+00
  0.00000000E+00  0.00000000E+00  0.00000000E+00  0.00000000E+00  0.00000000E+00
  0.00000000E+00  0.00000000E+00  0.00000000E+00  0.00000000E+00  0.00000000E+00
  0.00000000E+00  0.00000000E+00  0.00000000E+00  0.00000000E+00  0.00000000E+00
  0.00000000E+00  0.00000000E+00  0.00000000E+00  0.00000000E+00  0.00000000E+00
IOpCl                                      I                0
IROHF                                      I                0
Alpha Orbital Energies                     R   N=          74
 -1.55450275E+01 -1.12863800E+01 -1.12370619E+01 -1.12226306E+01 -1.20214945E+00
 -1.00960022E+00 -9.55602383E-01 -7.39474168E-01 -6.46090805E-01 -6.06157483E-01
 -6.02111457E-01 -5.50022328E-01 -5.39332631E-01 -5.16131052E-01 -4.10413668E-01
 -4.05694068E-01  1.75350955E-01  2.20746454E-01  2.69434110E-01  2.99526439E-01
  3.02072842E-01  3.19006178E-01  3.31675252E-01  3.50773296E-01  3.85258008E-01
  4.58665685E-01  5.99950357E-01  7.05506060E-01  7.63111551E-01  7.77561892E-01
  7.81926931E-01  7.93027638E-01  8.53023436E-01  9.44517973E-01  9.71080142E-01
  1.00812251E+00  1.03030482E+00  1.05602151E+00  1.05856424E+00  1.13642054E+00
  1.15949528E+00  1.16200805E+00  1.19009164E+00  1.20167422E+00  1.21928683E+00
  1.24412379E+00  1.25925975E+00  1.48318848E+00  1.62525726E+00  1.66498328E+00
  1.68836539E+00  1.68903216E+00  2.02233374E+00  2.06508465E+00  2.09905813E+00
  2.12533102E+00  2.23331849E+00  2.29458319E+00  2.38188327E+00  2.42113263E+00
  2.50979182E+00  2.54901361E+00  2.61245832E+00  2.67232294E+00  2.75087861E+00
  2.83820682E+00  2.84637246E+00  2.98332786E+00  3.21982622E+00  3.25923277E+00
  4.24338318E+00  4.51581901E+00  4.70190494E+00  4.84070727E+00
Alpha MO coefficients                      R   N=        5476
  9.95164112E-01  2.45030130E-02 -1.35102789E-03 -1.38665723E-03 -9.42232712E-10
 -3.65688412E-03  1.23611348E-03  1.34220238E-03  1.13696368E-09 -3.13488724E-03
 -2.72088857E-03 -3.34888702E-03  5.04081193E-05 -1.45030567E-10  1.63069290E-10
  2.90967171E-05  2.70906954E-04  4.37841044E-05 -1.48284571E-04 -2.19929931E-10
  2.29057542E-03 -8.49801882E-04  1.54629623E-03  8.10244077E-10 -9.15655468E-05
 -6.34683114E-04 -5.08039336E-05  6.76520822E-05 -6.23209861E-12 -3.73906353E-10
 -9.03329669E-06 -6.34819625E-05 -7.24150634E-06 -3.75216236E-06  3.82429340E-12
  5.77656674E-04 -2.67511473E-04 -2.01882117E-04 -4.71117462E-10  5.43401207E-05
 -5.57317380E-05 -2.05056407E-05  2.67762572E-05  1.18194116E-10  7.82497602E-11
 -7.24490032E-06 -1.71301977E-05 -3.04396720E-05 -6.41815104E-05 -1.33866731E-10
 -1.91136161E-04  5.75264560E-05 -3.86307673E-04  5.23325272E-10  4.42877839E-05
 -9.14345819E-05 -4.44421189E-05 -3.29882640E-05 -1.21468672E-10  6.21340706E-11
  1.03849769E-05  2.98461355E-05 -1.32366080E-05 -9.80454959E-05 -1.32368074E-05
 -9.80456034E-05  1.09115249E-05  3.58206482E-05  1.86881736E-05 -1.07643002E-04
  1.86880716E-05 -1.07642253E-04  3.11940584E-04  8.17279859E-04 -4.35850342E-04
  1.02683430E-04 -5.28827262E-06  2.79541483E-05  6.17599901E-11  3.90711098E-05
 -2.82845564E-06  4.08975035E-04  1.43601350E-09 -2.33785740E-04 -2.82121706E-04
  1.16657544E-04  7.22481258E-05  6.92196544E-12 -5.31555083E-10  9.95707606E-01
  2.68243742E-02 -2.43849116E-05 -4.49130084E-05  8.23878423E-10 -1.05435632E-02
 -1.21402179E-04  2.64766609E-03 -2.52795452E-09 -1.74580200E-03 -1.07127025E-03
 -2.29083841E-03  1.26376360E-06 -4.21882580E-11  2.88997177E-10  5.04317591E-03
  2.81859620E-04  5.63387258E-05 -1.05640076E-04  6.13859021E-11  2.90905253E-03
 -1.53460421E-03  5.54860366E-04 -4.44839300E-10 -4.18553768E-04 -2.80411312E-04
 -4.88856819E-05  2.16296669E-04 -2.44756278E-10  2.00299908E-10  6.39402520E-03
  3.31547306E-04 -5.75709906E-05 -1.18069504E-04  2.00001055E-10  3.03089406E-03
  1.42725679E-03  9.00774043E-04 -4.26198705E-10 -4.04402634E-04 -3.56515597E-04
 -6.17267587E-05 -2.55003921E-04  2.76076129E-10  2.03420382E-10 -6.67287003E-05
  4.76481043E-05 -1.41001702E-04  2.60040303E-04 -1.41001671E-04  2.60039723E-04
 -8.35340336E-05  5.71527447E-05 -1.45584414E-04  2.67393934E-04 -1.45584029E-04
  2.67393502E-04  1.41125957E-04 -5.30573127E-05 -1.04294978E-05 -1.07537689E-04
  4.21988190E-05  3.43822022E-05 -6.75712421E-11  1.95781714E-04  3.91945060E-04
 -1.39356097E-04 -6.61700737E-11 -4.71924413E-06  5.13909468E-05 -1.11140726E-04
 -8.14212066E-05 -2.13696841E-10  1.03289457E-10 -6.68133222E-03 -7.47618298E-06
  4.26911888E-05 -4.87076941E-05 -1.58983492E-10  3.09974036E-03 -2.63370838E-03
 -9.84499315E-04  9.32541841E-10 -3.83294703E-04 -3.06590910E-04 -1.13436012E-04
 -1.92052011E-04  3.72004408E-11  7.01914951E-11 -9.47685797E-04 -3.76220382E-04
  9.33771803E-05  9.21692117E-05  5.54838864E-11  1.72688075E-03 -7.28290395E-04
 -8.51674541E-05 -6.34645959E-10 -2.71686162E-05 -4.61540351E-05 -1.18407885E-04
 -3.42751490E-05 -2.72412348E-11 -9.51960496E-11  9.95711534E-01  2.86624089E-02
  1.57552968E-04 -2.10150247E-05 -1.36576318E-10 -1.57811361E-02 -8.97285033E-04
 -5.26083824E-04  1.38337946E-09 -1.83635617E-03 -1.88109371E-03 -1.84611501E-03
 -2.42467106E-05  1.93895337E-12 -1.79739969E-10 -1.96433229E-05  2.46441709E-04
 -9.79351904E-05 -2.82273428E-04 -9.79349334E-05 -2.82275003E-04  1.53566818E-04
  2.44969460E-03  1.63461386E-04  2.61384776E-03  1.63461852E-04  2.61384844E-03
 -3.19961758E-05  3.79806392E-05 -1.51788341E-05 -1.59891333E-04 -4.17521695E-05
  3.46398549E-05 -6.67567354E-11  1.74483625E-04 -2.16162860E-04 -2.47874888E-04
  3.40833518E-10  3.93094233E-06  6.38129713E-05 -1.32270427E-04  1.32997300E-05
  1.83221584E-10  2.28533739E-11 -5.34191511E-03  2.30999642E-05 -2.66681265E-05
 -6.64261643E-05 -2.32498116E-11  3.08691758E-03  2.48069775E-03 -5.57778274E-04
 -1.96892516E-10 -4.42798503E-04 -2.57783286E-04 -1.19264878E-04  1.39768261E-04
 -1.04340650E-10  8.60897479E-11  9.95712678E-01  2.86821804E-02 -2.34275166E-04
 -1.05930195E-04  3.49230128E-10 -1.56414830E-02  1.00575423E-03 -2.81219987E-04
 -1.04565151E-09 -1.85287009E-03 -1.86808892E-03 -1.86076501E-03  3.16550168E-05
 -1.11377280E-10  2.30971409E-10  7.91880245E-04 -3.23392734E-04 -1.17882908E-04
  6.47921419E-05 -1.42985571E-10  1.53482601E-03  7.14229088E-04 -1.24147634E-05
  7.16526775E-10 -3.64036267E-05 -4.52431859E-05 -1.24243964E-04  3.32276814E-05
 -1.15612229E-10  3.02102654E-11  1.62103019E-04  2.41577939E-03  1.50852024E-04
  2.62744499E-03  1.50851603E-04  2.62744435E-03 -1.68281549E-05  2.74643406E-04
 -9.57819427E-05 -2.79826051E-04 -9.57823129E-05 -2.79825167E-04 -1.75410666E-05
  1.10502246E-04 -1.62457779E-01  3.32737636E-01 -4.65764829E-02 -1.19457459E-01
 -6.98749716E-08  3.43169742E-01 -2.66262367E-02 -5.00777351E-02 -3.85373763E-08
  4.42496481E-03  1.23688328E-02 -1.14836164E-02 -1.65397831E-03  1.11831477E-08
  1.03333282E-08 -1.35697131E-01  2.64752476E-01 -9.71561713E-03  1.23148228E-01
  8.91558100E-08  1.13608458E-01 -1.05611003E-02 -3.20346244E-02 -6.37674209E-09
 -4.88867854E-03  2.17216963E-02 -1.40393699E-02 -2.30615083E-03 -1.07769227E-09
  1.56268230E-08 -4.23562517E-02  7.81955989E-02 -3.67841343E-02  2.49249325E-02
 -1.73428590E-09  5.61252918E-02 -6.74242495E-04  1.05644799E-02  7.98882223E-09
  6.50169567E-03  2.91918698E-03 -6.86073446E-04 -5.12027409E-03  1.33180933E-09
 -2.97776189E-09 -4.42207972E-02  8.33833644E-02  3.07767691E-02  3.14096538E-02
 -1.50659697E-08  4.24375993E-02 -4.35502172E-03  5.32771438E-03  3.75498301E-09
  4.96036962E-03  4.66847197E-03 -3.70911976E-04  5.24535712E-03 -1.75330197E-09
 -4.68633124E-09  2.04942514E-02 -1.13228673E-03  1.77247326E-02  1.72643793E-03
  1.77247205E-02  1.72643976E-03  2.22386179E-02  3.72536503E-03  1.93776600E-02
  1.98655698E-03  1.93776629E-02  1.98655423E-03  9.57774989E-02 -1.39788627E-03
  9.63057185E-02 -2.02514227E-01  4.88661669E-02  9.14822190E-03  4.86783768E-08
 -2.16099791E-01  2.73566739E-02  6.98210920E-04  1.33222733E-08 -9.00866149E-03
 -5.06873801E-04  6.27679689E-03  3.21737881E-03 -8.31194225E-09 -3.63212548E-09
 -5.38739462E-02  1.07824746E-01  1.12807558E-02 -1.94780156E-01  8.84844286E-09
  8.50724011E-02  2.07310242E-03 -4.02539362E-02  1.14048468E-08  2.05766605E-02
 -8.30160251E-03 -4.15223367E-03  4.70658397E-03 -6.04726438E-10 -1.56999739E-08
 -1.07494580E-01  2.00777904E-01 -3.79790667E-02 -6.39812360E-03  1.21260573E-08
  1.84527412E-01 -4.84828178E-03 -6.74507206E-03  2.30055167E-09  6.82777453E-03
  2.88793199E-03  4.95065268E-03  8.01427209E-05 -1.47434383E-09  2.65290332E-09
 -1.24987774E-01  2.32382936E-01  3.51723348E-02 -1.93663895E-03 -3.11414123E-08
  2.22648296E-01  4.85729613E-03 -4.34397847E-03 -1.46716673E-08  6.83181293E-03
  3.97114261E-03  5.95026449E-03  3.34422292E-04 -9.16044209E-09 -3.95503987E-10
  5.65459411E-02  8.44412420E-03  7.08677843E-02  1.58431136E-02  7.08677741E-02
  1.58431120E-02  6.92525868E-02  1.15635586E-02  8.34018364E-02  1.87392782E-02
  8.34018748E-02  1.87392870E-02 -8.28100557E-02 -8.11393205E-03  2.29196867E-03
 -4.35834196E-03  4.91366138E-02 -1.19946867E-02  5.66819954E-09 -3.60947079E-03
  1.90384145E-02 -3.02298845E-03  1.02748849E-09 -4.39266526E-03  2.00361778E-03
  9.72157005E-04 -4.08179815E-03 -4.33772090E-09  4.75131054E-10 -9.80065559E-03
  2.00323318E-02  1.73469570E-01  9.57563546E-03  3.28745258E-09  2.03962875E-02
  2.76838653E-02 -7.30599997E-03  7.08817105E-09  3.29009375E-03 -2.48447245E-03
 -8.34567483E-04 -1.56032045E-02  1.18924891E-08  1.53960110E-09 -1.42419586E-01
  2.64802671E-01  3.54199432E-03  9.99665443E-03  2.50652391E-08  2.71760612E-01
  3.26139904E-03 -2.88414372E-03  1.13215603E-08  3.78720612E-03  7.92246244E-03
  7.12437361E-03  1.73084833E-03 -4.52118657E-09  3.28464783E-09  1.32618289E-01
 -2.45024429E-01  1.91284019E-02 -3.39154523E-03  2.33988827E-08 -2.68134408E-01
  1.02040949E-03 -3.29960872E-04  1.12771458E-08 -3.65308603E-03 -6.69376681E-03
 -6.88610406E-03  3.31773186E-03  1.66212576E-09  7.89803671E-09  1.00325142E-01
  2.40057483E-02  9.44620897E-02  2.26097951E-02  9.44620807E-02  2.26097883E-02
 -9.94590345E-02 -2.93722734E-02 -8.93754449E-02 -2.17214514E-02 -8.93754309E-02
 -2.17214397E-02 -2.58698206E-02 -7.93476682E-03  5.49437778E-02 -1.17832720E-01
  1.59596272E-01 -2.33079485E-01 -1.20879713E-08 -1.73545775E-01  8.39728761E-02
 -1.03114377E-01 -1.18335445E-08 -2.89463930E-02  2.04900341E-02  4.17694429E-03
  9.70479678E-03 -1.37046635E-08  1.34897646E-08 -1.25100583E-01  2.61884843E-01
  3.56608262E-02  8.41785746E-03  6.44526378E-08  2.72347975E-01  2.79389742E-03
 -3.55040591E-02  3.03914345E-08  1.08023982E-04  3.55214518E-03 -9.25496762E-03
  6.94822666E-03  1.74292696E-09  6.37708726E-09  5.77663330E-02 -1.03079714E-01
 -1.71297308E-01  1.02088323E-01 -4.89008531E-08 -1.58036385E-01 -4.90028748E-02
  3.97713539E-02 -3.34925636E-08  1.20919532E-02 -7.03724327E-03 -1.25530534E-02
 -1.28407206E-02  1.46820715E-08 -1.57380562E-08  3.35641275E-02 -5.93154163E-02
  1.33586150E-01  7.87965738E-02 -5.37312486E-08 -1.04412733E-01  3.67841636E-02
  2.37690967E-02 -3.05181877E-08  4.20746321E-03 -1.54243849E-03 -7.31678044E-03
  1.34030429E-02 -8.59853826E-09  6.30598969E-09 -7.56547088E-02 -4.51761520E-02
 -8.95518495E-02 -4.83168010E-02 -8.95519403E-02 -4.83168633E-02 -7.16327651E-02
 -4.65308626E-02 -5.25617694E-02 -3.01325388E-02 -5.25617012E-02 -3.01325172E-02
 -1.76761164E-01 -8.18743896E-02 -1.58923392E-02  3.96843526E-02  2.27359471E-01
 -1.60013550E-01  4.79864313E-08  1.74702549E-02  1.22358744E-01 -5.86726277E-02
  4.92139681E-08 -2.47602530E-02  1.49706374E-02  3.59388032E-03  3.82212578E-05
 -1.64335049E-08  2.09719614E-09  3.14573697E-02 -6.22115380E-02  1.53232128E-01
  2.61902539E-01  1.57756063E-07 -7.28734698E-02  6.14460416E-02  9.13747491E-02
  6.54463325E-08 -8.07488072E-03  4.05009434E-03  8.86598781E-04  4.48147554E-03
  8.00383910E-09  1.68827103E-08 -4.22586200E-03  1.16499804E-02  1.20629187E-01
  1.56284744E-01  1.63438902E-07  3.37467524E-03  6.42197319E-02  7.01593624E-02
  7.94095236E-08  1.62847127E-03  7.31292091E-03 -7.50354053E-03  8.47926770E-03
 -2.03380373E-09 -2.16050642E-08 -2.51432932E-02  4.21521149E-02 -2.41739874E-01
 -1.25759737E-01  4.33175770E-07  8.56775659E-02 -1.04063354E-01 -5.61096566E-02
  2.11396480E-07 -6.68371579E-03  2.56826222E-03  1.00852839E-02 -1.85621735E-02
  2.51858734E-08 -3.63278166E-08  1.19789340E-01  7.11399373E-02 -4.19713716E-02
 -2.81227782E-02 -4.19716082E-02 -2.81229520E-02  1.04808714E-01  6.69132346E-02
  6.56013026E-02  4.14713209E-02  6.56007992E-02  4.14709916E-02 -1.45596905E-01
 -8.65939825E-02 -1.18833256E-07  2.87323724E-07 -7.43989172E-09  5.50027373E-07
  1.06807707E-01  3.26409777E-07 -3.65940197E-08  3.84263461E-07  6.99521783E-02
  4.11379318E-08 -2.76183922E-08  7.07922949E-10 -4.02929089E-08 -3.61433431E-03
 -1.19407861E-02  4.76871505E-08 -1.31221189E-07  4.20519504E-07 -5.25080480E-07
  1.67898689E-01  1.18603760E-07  2.35632609E-07 -5.99810053E-08  7.59145531E-02
 -1.85493953E-08  2.81690600E-09  2.44090102E-08 -1.64432340E-08 -8.27127368E-04
 -1.67726970E-03  5.28042757E-08 -7.77923453E-08 -7.05652174E-07 -2.50806741E-08
  2.49682406E-01 -2.79317945E-07 -3.12909471E-07 -4.04870387E-08  1.25592654E-01
  8.52859086E-09 -4.98488310E-08  3.72852746E-08 -2.87757026E-08 -2.71165046E-03
 -1.83898266E-02  4.27599421E-09 -1.43896715E-08  6.38928415E-07 -8.56636171E-07
  3.11446863E-01  3.41694135E-08  3.83479662E-07 -4.77125769E-07  1.67311794E-01
 -8.34026482E-08 -5.52907792E-08  1.35931054E-07  8.63225860E-08  6.15603755E-03