
    -----------------------------------------------------------------------
          Psi4: An Open-Source Ab Initio Electronic Structure Package
                               Psi4 1.3.2 release

                         Git: Rev {HEAD} ecbda83 


    R. M. Parrish, L. A. Burns, D. G. A. Smith, A. C. Simmonett,
    A. E. DePrince III, E. G. Hohenstein, U. Bozkaya, A. Yu. Sokolov,
    R. Di Remigio, R. M. Richard, J. F. Gonthier, A. M. James,
    H. R. McAlexander, A. Kumar, M. Saitow, X. Wang, B. P. Pritchard,
    P. Verma, H. F. Schaefer III, K. Patkowski, R. A. King, E. F. Valeev,
    F. A. Evangelista, J. M. Turney, T. D. Crawford, and C. D. Sherrill,
    J. Chem. Theory Comput. 13(7) pp 3185--3197 (2017).
    (doi: 10.1021/acs.jctc.7b00174)


                         Additional Contributions by
    P. Kraus, H. Kruse, M. H. Lechner, M. C. Schieber, R. A. Shaw,
    A. Alenaizan, R. Galvelis, Z. L. Glick, S. Lehtola, and J. P. Misiewicz

    -----------------------------------------------------------------------


    Psi4 started on: Tuesday, 17 November 2020 07:28AM

    Process ID: 22758
    Host:       node142.bme.utexas.edu
    PSIDATADIR: /home/xy3866/psi4conda/share/psi4
    Memory:     500.0 MiB
    Threads:    8
    
  ==> Input File <==

--------------------------------------------------------------------------
#psi4
#
memory 32 gb

molecule  {
0 1
  O       -0.1726338    -0.2992393     0.0872145
  O       -2.2943480    -0.3022200    -0.0003020
  N       -1.3331360     0.4207790     0.0001410
  C        0.9942900     0.5577750     0.0000260
  C        2.2263960    -0.3194130     0.0000350
  H        0.9504280     1.1934050    -0.8894500
  H        0.9504900     1.1935070     0.8894320
  H        3.1263330     0.3018800    -0.0000350
  H        2.2416080    -0.9559660     0.8869040
  H        2.2415440    -0.9560740    -0.8867580
units angstrom
no_reorient  #important for SAPT in psi4, default
symmetry c1  #important for SAPT in psi4, default
}

set PROPERTIES_ORIGIN ["COM"]
properties('MP2/aug-cc-pvtz', properties = ['dipole'])
--------------------------------------------------------------------------

  Memory set to  29.802 GiB by Python driver.
    SCF Algorithm Type (re)set to DF.

*** tstart() called on node142.bme.utexas.edu
*** at Tue Nov 17 07:28:17 2020

   => Loading Basis Set <=

    Name: AUG-CC-PVTZ
    Role: ORBITAL
    Keyword: BASIS
    atoms 1-2  entry O          line   327 file /home/xy3866/psi4conda/share/psi4/basis/aug-cc-pvtz.gbs 
    atoms 3    entry N          line   281 file /home/xy3866/psi4conda/share/psi4/basis/aug-cc-pvtz.gbs 
    atoms 4-5  entry C          line   235 file /home/xy3866/psi4conda/share/psi4/basis/aug-cc-pvtz.gbs 
    atoms 6-10 entry H          line    36 file /home/xy3866/psi4conda/share/psi4/basis/aug-cc-pvtz.gbs 


         ---------------------------------------------------------
                                   SCF
               by Justin Turney, Rob Parrish, Andy Simmonett
                          and Daniel G. A. Smith
                              RHF Reference
                        8 Threads,  30517 MiB Core
         ---------------------------------------------------------

  ==> Geometry <==

    Molecular point group: c1
    Full point group: C1

    Geometry (in Angstrom), charge = 0, multiplicity = 1:

       Center              X                  Y                   Z               Mass       
    ------------   -----------------  -----------------  -----------------  -----------------
         O           -0.040768630880    -0.298107562441     0.068649652326    15.994914619570
         O           -2.162482830880    -0.301088262441    -0.018866847674    15.994914619570
         N           -1.201270830880     0.421910737559    -0.018423847674    14.003074004430
         C            1.126155169120     0.558906737559    -0.018538847674    12.000000000000
         C            2.358261169120    -0.318281262441    -0.018529847674    12.000000000000
         H            1.082293169120     1.194536737559    -0.908014847674     1.007825032230
         H            1.082355169120     1.194638737559     0.870867152326     1.007825032230
         H            3.258198169120     0.303011737559    -0.018599847674     1.007825032230
         H            2.373473169120    -0.954834262441     0.868339152326     1.007825032230
         H            2.373409169120    -0.954942262441    -0.905322847674     1.007825032230

  Running in c1 symmetry.

  Rotational constants: A =      0.91596  B =      0.08237  C =      0.07785 [cm^-1]
  Rotational constants: A =  27459.74649  B =   2469.24943  C =   2333.76487 [MHz]
  Nuclear repulsion =  174.953189286270884

  Charge       = 0
  Multiplicity = 1
  Electrons    = 40
  Nalpha       = 20
  Nbeta        = 20

  ==> Algorithm <==

  SCF Algorithm Type is DF.
  DIIS enabled.
  MOM disabled.
  Fractional occupation disabled.
  Guess Type is SAD.
  Energy threshold   = 1.00e-10
  Density threshold  = 1.00e-10
  Integral threshold = 0.00e+00

  ==> Primary Basis <==

  Basis Set: AUG-CC-PVTZ
    Blend: AUG-CC-PVTZ
    Number of shells: 115
    Number of basis function: 345
    Number of Cartesian functions: 400
    Spherical Harmonics?: true
    Max angular momentum: 3

   => Loading Basis Set <=

    Name: (AUG-CC-PVTZ AUX)
    Role: JKFIT
    Keyword: DF_BASIS_SCF
    atoms 1-2  entry O          line   286 file /home/xy3866/psi4conda/share/psi4/basis/aug-cc-pvtz-jkfit.gbs 
    atoms 3    entry N          line   224 file /home/xy3866/psi4conda/share/psi4/basis/aug-cc-pvtz-jkfit.gbs 
    atoms 4-5  entry C          line   162 file /home/xy3866/psi4conda/share/psi4/basis/aug-cc-pvtz-jkfit.gbs 
    atoms 6-10 entry H          line    70 file /home/xy3866/psi4conda/share/psi4/basis/aug-cc-pvtz-jkfit.gbs 

  ==> Pre-Iterations <==

   -------------------------------------------------------
    Irrep   Nso     Nmo     Nalpha   Nbeta   Ndocc  Nsocc
   -------------------------------------------------------
     A        345     345       0       0       0       0
   -------------------------------------------------------
    Total     345     345      20      20      20       0
   -------------------------------------------------------

  ==> Integral Setup <==

  DFHelper Memory: AOs need 0.681 GiB; user supplied 22.352 GiB. Using in-core AOs.

  ==> MemDFJK: Density-Fitted J/K Matrices <==

    J tasked:                   Yes
    K tasked:                   Yes
    wK tasked:                   No
    OpenMP threads:               8
    Memory [MiB]:             22888
    Algorithm:                 Core
    Schwarz Cutoff:           1E-12
    Mask sparsity (%):       2.9170
    Fitting Condition:        1E-10

   => Auxiliary Basis Set <=

  Basis Set: (AUG-CC-PVTZ AUX)
    Blend: AUG-CC-PVTZ-JKFIT
    Number of shells: 220
    Number of basis function: 750
    Number of Cartesian functions: 930
    Spherical Harmonics?: true
    Max angular momentum: 4

  Minimum eigenvalue in the overlap matrix is 1.6979094227E-05.
  Using Symmetric Orthogonalization.

  SCF Guess: Superposition of Atomic Densities via on-the-fly atomic UHF.

  ==> Iterations <==

                           Total Energy        Delta E     RMS |[F,P]|

   @DF-RHF iter SAD:  -281.77768180709444   -2.81778e+02   0.00000e+00 
   @DF-RHF iter   1:  -282.64511120779918   -8.67429e-01   1.70126e-03 DIIS
   @DF-RHF iter   2:  -282.75242621397410   -1.07315e-01   1.15982e-03 DIIS
   @DF-RHF iter   3:  -282.80810992652459   -5.56837e-02   2.36029e-04 DIIS
   @DF-RHF iter   4:  -282.81184944482817   -3.73952e-03   9.65744e-05 DIIS
   @DF-RHF iter   5:  -282.81264579190122   -7.96347e-04   2.97841e-05 DIIS
   @DF-RHF iter   6:  -282.81278713182144   -1.41340e-04   1.83111e-05 DIIS
   @DF-RHF iter   7:  -282.81283721904816   -5.00872e-05   7.35438e-06 DIIS
   @DF-RHF iter   8:  -282.81284981495639   -1.25959e-05   2.58208e-06 DIIS
   @DF-RHF iter   9:  -282.81285096253032   -1.14757e-06   9.22711e-07 DIIS
   @DF-RHF iter  10:  -282.81285108747454   -1.24944e-07   3.38704e-07 DIIS
   @DF-RHF iter  11:  -282.81285110834091   -2.08664e-08   1.05382e-07 DIIS
   @DF-RHF iter  12:  -282.81285111035999   -2.01908e-09   3.44989e-08 DIIS
   @DF-RHF iter  13:  -282.81285111062743   -2.67448e-10   1.47297e-08 DIIS
   @DF-RHF iter  14:  -282.81285111069110   -6.36646e-11   8.66285e-09 DIIS
   @DF-RHF iter  15:  -282.81285111071901   -2.79101e-11   5.82698e-09 DIIS
   @DF-RHF iter  16:  -282.81285111073248   -1.34719e-11   2.97085e-09 DIIS
   @DF-RHF iter  17:  -282.81285111073714   -4.66116e-12   1.19039e-09 DIIS
   @DF-RHF iter  18:  -282.81285111073595    1.19371e-12   3.29313e-10 DIIS
   @DF-RHF iter  19:  -282.81285111073680   -8.52651e-13   1.11915e-10 DIIS
   @DF-RHF iter  20:  -282.81285111073629    5.11591e-13   4.48933e-11 DIIS
  Energy and wave function converged.


  ==> Post-Iterations <==

    Orbital Energies [Eh]
    ---------------------

    Doubly Occupied:                                                      

       1A    -20.637703     2A    -20.634213     3A    -15.778951  
       4A    -11.306799     5A    -11.239050     6A     -1.575803  
       7A     -1.402754     8A     -1.059908     9A     -0.931122  
      10A     -0.863907    11A     -0.743267    12A     -0.707597  
      13A     -0.704964    14A     -0.625858    15A     -0.588733  
      16A     -0.563264    17A     -0.539395    18A     -0.535503  
      19A     -0.471298    20A     -0.447485  

    Virtual:                                                              

      21A      0.026550    22A      0.038349    23A      0.038508  
      24A      0.047859    25A      0.061828    26A      0.089725  
      27A      0.091434    28A      0.095060    29A      0.109697  
      30A      0.117677    31A      0.123430    32A      0.130214  
      33A      0.136690    34A      0.141480    35A      0.148037  
      36A      0.167931    37A      0.178706    38A      0.203312  
      39A      0.209385    40A      0.221573    41A      0.224518  
      42A      0.230684    43A      0.244153    44A      0.248768  
      45A      0.252080    46A      0.274739    47A      0.279132  
      48A      0.287006    49A      0.310096    50A      0.322442  
      51A      0.324890    52A      0.329602    53A      0.335863  
      54A      0.346473    55A      0.348299    56A      0.360383  
      57A      0.363990    58A      0.381251    59A      0.387154  
      60A      0.395133    61A      0.405858    62A      0.410898  
      63A      0.426625    64A      0.428574    65A      0.430939  
      66A      0.454857    67A      0.462675    68A      0.463657  
      69A      0.476645    70A      0.481370    71A      0.495144  
      72A      0.499633    73A      0.510115    74A      0.513353  
      75A      0.520543    76A      0.549048    77A      0.563558  
      78A      0.580248    79A      0.589614    80A      0.593720  
      81A      0.611253    82A      0.640054    83A      0.646197  
      84A      0.665411    85A      0.703031    86A      0.724172  
      87A      0.742105    88A      0.755620    89A      0.763427  
      90A      0.779054    91A      0.792734    92A      0.810163  
      93A      0.816055    94A      0.828713    95A      0.831719  
      96A      0.836932    97A      0.845380    98A      0.863918  
      99A      0.867889   100A      0.874267   101A      0.877837  
     102A      0.889456   103A      0.894152   104A      0.906051  
     105A      0.918171   106A      0.926622   107A      0.940568  
     108A      0.958620   109A      0.962414   110A      0.997789  
     111A      1.011805   112A      1.019883   113A      1.029551  
     114A      1.037769   115A      1.049979   116A      1.056601  
     117A      1.080455   118A      1.087239   119A      1.088519  
     120A      1.111714   121A      1.122459   122A      1.138654  
     123A      1.147937   124A      1.152069   125A      1.189997  
     126A      1.191925   127A      1.200226   128A      1.213457  
     129A      1.236560   130A      1.254814   131A      1.264851  
     132A      1.269786   133A      1.315580   134A      1.331920  
     135A      1.355044   136A      1.365956   137A      1.385884  
     138A      1.398289   139A      1.406575   140A      1.424631  
     141A      1.450529   142A      1.458526   143A      1.492044  
     144A      1.515589   145A      1.547474   146A      1.559856  
     147A      1.583430   148A      1.592048   149A      1.609684  
     150A      1.619424   151A      1.637255   152A      1.644220  
     153A      1.645954   154A      1.666737   155A      1.674675  
     156A      1.684246   157A      1.689083   158A      1.692519  
     159A      1.713374   160A      1.723714   161A      1.734103  
     162A      1.737407   163A      1.777330   164A      1.781486  
     165A      1.801993   166A      1.821214   167A      1.862266  
     168A      1.889856   169A      1.916429   170A      1.931164  
     171A      1.961884   172A      1.970958   173A      1.985867  
     174A      1.994746   175A      2.020085   176A      2.030700  
     177A      2.038424   178A      2.050824   179A      2.087553  
     180A      2.133321   181A      2.140201   182A      2.188107  
     183A      2.196124   184A      2.207625   185A      2.212676  
     186A      2.235765   187A      2.246397   188A      2.277455  
     189A      2.285126   190A      2.330851   191A      2.355138  
     192A      2.379562   193A      2.382215   194A      2.420818  
     195A      2.457122   196A      2.469829   197A      2.533215  
     198A      2.552676   199A      2.584858   200A      2.602276  
     201A      2.629249   202A      2.643903   203A      2.687027  
     204A      2.712291   205A      2.735885   206A      2.781596  
     207A      2.801975   208A      2.814938   209A      2.828628  
     210A      2.909380   211A      3.000639   212A      3.024191  
     213A      3.049348   214A      3.063485   215A      3.172115  
     216A      3.182981   217A      3.225054   218A      3.262065  
     219A      3.270112   220A      3.330693   221A      3.379379  
     222A      3.385634   223A      3.414513   224A      3.437872  
     225A      3.497163   226A      3.552019   227A      3.578889  
     228A      3.629638   229A      3.635196   230A      3.676050  
     231A      3.683129   232A      3.713972   233A      3.730267  
     234A      3.746694   235A      3.762665   236A      3.802099  
     237A      3.807673   238A      3.893818   239A      3.909865  
     240A      3.939605   241A      3.944860   242A      3.975095  
     243A      3.998527   244A      4.031971   245A      4.056631  
     246A      4.098384   247A      4.120553   248A      4.129656  
     249A      4.165045   250A      4.183216   251A      4.206116  
     252A      4.230193   253A      4.277001   254A      4.286296  
     255A      4.336016   256A      4.396899   257A      4.401119  
     258A      4.418170   259A      4.485213   260A      4.511974  
     261A      4.550802   262A      4.597095   263A      4.616567  
     264A      4.653319   265A      4.690098   266A      4.745098  
     267A      4.763136   268A      4.799640   269A      4.809616  
     270A      4.818876   271A      4.878927   272A      4.902025  
     273A      4.906902   274A      4.959340   275A      4.990457  
     276A      5.010240   277A      5.040677   278A      5.057086  
     279A      5.099174   280A      5.122460   281A      5.129731  
     282A      5.158298   283A      5.167448   284A      5.241314  
     285A      5.250953   286A      5.293539   287A      5.308252  
     288A      5.328409   289A      5.339975   290A      5.369421  
     291A      5.390795   292A      5.413000   293A      5.461148  
     294A      5.478730   295A      5.514857   296A      5.546841  
     297A      5.569941   298A      5.697646   299A      5.707872  
     300A      5.721948   301A      5.757012   302A      5.780823  
     303A      5.802531   304A      5.900815   305A      5.979659  
     306A      5.988916   307A      6.070414   308A      6.095214  
     309A      6.144758   310A      6.197617   311A      6.277195  
     312A      6.333205   313A      6.551523   314A      6.559989  
     315A      6.571997   316A      6.669265   317A      6.743455  
     318A      6.764778   319A      6.798429   320A      6.886340  
     321A      6.900951   322A      6.917206   323A      7.036205  
     324A      7.130381   325A      7.135048   326A      7.214439  
     327A      7.257010   328A      7.293296   329A      7.356483  
     330A      7.463679   331A      7.477432   332A      7.500932  
     333A      7.610938   334A      7.662361   335A      7.824612  
     336A      7.850451   337A      7.910306   338A      8.021855  
     339A      8.344114   340A      8.496183   341A     14.060432  
     342A     15.297861   343A     15.563613   344A     17.678476  
     345A     18.355676  

    Final Occupation by Irrep:
              A 
    DOCC [    20 ]

  @DF-RHF Final Energy:  -282.81285111073629

   => Energetics <=

    Nuclear Repulsion Energy =            174.9531892862708844
    One-Electron Energy =                -732.8169309975897932
    Two-Electron Energy =                 275.0508906005825907
    Total Energy =                       -282.8128511107362897

Computation Completed

*** tstop() called on node142.bme.utexas.edu at Tue Nov 17 07:28:24 2020
Module time:
	user time   =      47.24 seconds =       0.79 minutes
	system time =       2.08 seconds =       0.03 minutes
	total time  =          7 seconds =       0.12 minutes
Total time:
	user time   =      47.24 seconds =       0.79 minutes
	system time =       2.08 seconds =       0.03 minutes
	total time  =          7 seconds =       0.12 minutes
   => Loading Basis Set <=

    Name: (AUG-CC-PVTZ AUX)
    Role: RIFIT
    Keyword: DF_BASIS_MP2
    atoms 1-2  entry O          line   264 file /home/xy3866/psi4conda/share/psi4/basis/aug-cc-pvtz-ri.gbs 
    atoms 3    entry N          line   206 file /home/xy3866/psi4conda/share/psi4/basis/aug-cc-pvtz-ri.gbs 
    atoms 4-5  entry C          line   148 file /home/xy3866/psi4conda/share/psi4/basis/aug-cc-pvtz-ri.gbs 
    atoms 6-10 entry H          line    30 file /home/xy3866/psi4conda/share/psi4/basis/aug-cc-pvtz-ri.gbs 


*** tstart() called on node142.bme.utexas.edu
*** at Tue Nov 17 07:28:24 2020


  //>>>>>>>>>>>>>>>>>>>>>>>>>>>>>>>>>>>//
  //               DFMP2               //
  //<<<<<<<<<<<<<<<<<<<<<<<<<<<<<<<<<<<//

	 --------------------------------------------------------
	                          DF-MP2                         
	      2nd-Order Density-Fitted Moller-Plesset Theory     
	              RMP2 Wavefunction,   8 Threads             
	                                                         
	        Rob Parrish, Justin Turney, Andy Simmonett,      
	           Ed Hohenstein, and C. David Sherrill          
	 --------------------------------------------------------

   => Auxiliary Basis Set <=

  Basis Set: (AUG-CC-PVTZ AUX)
    Blend: AUG-CC-PVTZ-RI
    Number of shells: 210
    Number of basis function: 760
    Number of Cartesian functions: 955
    Spherical Harmonics?: true
    Max angular momentum: 4

	 --------------------------------------------------------
	                 NBF =   345, NAUX =   760
	 --------------------------------------------------------
	   CLASS    FOCC     OCC    AOCC    AVIR     VIR    FVIR
	   PAIRS       0      20      20     325     325       0
	 --------------------------------------------------------

  DFHelper Memory: AOs need 0.681 GiB; user supplied 22.352 GiB. Using in-core AOs.


         ------------------------------------------------------------
                                     CPHF                           
                                  Rob Parrish                       
         ------------------------------------------------------------

  ==> Geometry <==

    Molecular point group: c1
    Full point group: C1

    Geometry (in Angstrom), charge = 0, multiplicity = 1:

       Center              X                  Y                   Z               Mass       
    ------------   -----------------  -----------------  -----------------  -----------------
         O           -0.040768630880    -0.298107562441     0.068649652326    15.994914619570
         O           -2.162482830880    -0.301088262441    -0.018866847674    15.994914619570
         N           -1.201270830880     0.421910737559    -0.018423847674    14.003074004430
         C            1.126155169120     0.558906737559    -0.018538847674    12.000000000000
         C            2.358261169120    -0.318281262441    -0.018529847674    12.000000000000
         H            1.082293169120     1.194536737559    -0.908014847674     1.007825032230
         H            1.082355169120     1.194638737559     0.870867152326     1.007825032230
         H            3.258198169120     0.303011737559    -0.018599847674     1.007825032230
         H            2.373473169120    -0.954834262441     0.868339152326     1.007825032230
         H            2.373409169120    -0.954942262441    -0.905322847674     1.007825032230

  Nuclear repulsion =  174.953189286270884
  Reference energy  = -282.812851110736290

  ==> Basis Set <==

  Basis Set: AUG-CC-PVTZ
    Blend: AUG-CC-PVTZ
    Number of shells: 115
    Number of basis function: 345
    Number of Cartesian functions: 400
    Spherical Harmonics?: true
    Max angular momentum: 3

  ==> CGRSolver (by Rob Parrish) <==

   Number of roots    =         1
   Preconditioning    =    JACOBI
   Convergence cutoff =     1E-06
   Maximum iterations =       100

  ==> CPHFRHamiltonian (by Rob Parrish) <== 

  ==> MemDFJK: Density-Fitted J/K Matrices <==

    J tasked:                   Yes
    K tasked:                   Yes
    wK tasked:                   No
    OpenMP threads:               8
    Memory [MiB]:             22888
    Algorithm:                 Core
    Schwarz Cutoff:           1E-12
    Mask sparsity (%):       2.9170
    Fitting Condition:        1E-10

   => Auxiliary Basis Set <=

  Basis Set: (AUG-CC-PVTZ AUX)
    Blend: AUG-CC-PVTZ-JKFIT
    Number of shells: 220
    Number of basis function: 750
    Number of Cartesian functions: 930
    Spherical Harmonics?: true
    Max angular momentum: 4

  ==> CPHF Iterations <==

  => Iterations <=

             Iter  Converged  Remaining    Residual
  CGR           1          0          1   1.796E-01
  CGR           2          0          1   5.794E-02
  CGR           3          0          1   2.667E-02
  CGR           4          0          1   1.051E-02
  CGR           5          0          1   4.078E-03
  CGR           6          0          1   1.415E-03
  CGR           7          0          1   5.238E-04
  CGR           8          0          1   2.476E-04
  CGR           9          0          1   7.147E-05
  CGR          10          0          1   1.795E-05
  CGR          11          0          1   6.015E-06
  CGR          12          0          1   3.696E-06
  CGR          13          0          1   2.205E-06
  CGR          14          1          0   6.758E-07

    CGRSolver converged.

	-----------------------------------------------------------
	 ==================> DF-MP2 Energies <==================== 
	-----------------------------------------------------------
	 Reference Energy          =    -282.8128511107362897 [Eh]
	 Singles Energy            =      -0.0000000000000000 [Eh]
	 Same-Spin Energy          =      -0.2715157707266633 [Eh]
	 Opposite-Spin Energy      =      -0.8565493430979843 [Eh]
	 Correlation Energy        =      -1.1280651138246476 [Eh]
	 Total Energy              =    -283.9409162245609650 [Eh]
	-----------------------------------------------------------
	 ================> DF-SCS-MP2 Energies <================== 
	-----------------------------------------------------------
	 SCS Same-Spin Scale       =       0.3333333333333333 [-]
	 SCS Opposite-Spin Scale   =       1.2000000000000000 [-]
	 SCS Same-Spin Energy      =      -0.0905052569088877 [Eh]
	 SCS Opposite-Spin Energy  =      -1.0278592117175811 [Eh]
	 SCS Correlation Energy    =      -1.1183644686264689 [Eh]
	 SCS Total Energy          =    -283.9312155793627426 [Eh]
	-----------------------------------------------------------



Properties will be evaluated at   0.000000,   0.000000,   0.000000 [a0]

Properties computed using the MP2 density matrix

  Nuclear Dipole Moment: [e a0]
     X:     9.5267      Y:     0.7294      Z:    -0.0866

  Electronic Dipole Moment: [e a0]
     X:    -8.3808      Y:    -0.3541      Z:     0.0575

  Dipole Moment: [e a0]
     X:     1.1459      Y:     0.3752      Z:    -0.0292     Total:     1.2062

  Dipole Moment: [D]
     X:     2.9127      Y:     0.9537      Z:    -0.0741     Total:     3.0658


*** tstop() called on node142.bme.utexas.edu at Tue Nov 17 07:28:40 2020
Module time:
	user time   =     109.88 seconds =       1.83 minutes
	system time =       3.44 seconds =       0.06 minutes
	total time  =         16 seconds =       0.27 minutes
Total time:
	user time   =     157.90 seconds =       2.63 minutes
	system time =       5.58 seconds =       0.09 minutes
	total time  =         23 seconds =       0.38 minutes

    Psi4 stopped on: Tuesday, 17 November 2020 07:28AM
    Psi4 wall time for execution: 0:00:23.90

*** Psi4 exiting successfully. Buy a developer a beer!
