209_p-Toluidine Gaussian SP Calculation on node58.bme.utexas.edu        
Freq      RMP2-FC                                                     6-31G(d)            
Number of atoms                            I               17
Info1-9                                    I   N=           9
          28          27        1002           0           0         100
           6           2           1
Charge                                     I                0
Multiplicity                               I                1
Number of electrons                        I               58
Number of alpha electrons                  I               29
Number of beta electrons                   I               29
Number of basis functions                  I              138
Number of independent functions            I              138
Number of point charges in /Mol/           I                0
Number of translation vectors              I                0
Atomic numbers                             I   N=          17
           7           6           6           6           6           6
           6           6           1           1           1           1
           1           1           1           1           1
Nuclear charges                            R   N=          17
  7.00000000E+00  6.00000000E+00  6.00000000E+00  6.00000000E+00  6.00000000E+00
  6.00000000E+00  6.00000000E+00  6.00000000E+00  1.00000000E+00  1.00000000E+00
  1.00000000E+00  1.00000000E+00  1.00000000E+00  1.00000000E+00  1.00000000E+00
  1.00000000E+00  1.00000000E+00
Current cartesian coordinates              R   N=          51
  5.37302878E+00  2.37526916E-06 -1.40789654E-01 -2.64307344E+00 -1.28157748E-07
 -3.21476308E-02  2.71653899E+00 -5.45632823E-07  7.94955115E-03 -1.27234149E+00
 -2.26296273E+00 -1.71989644E-02 -1.27234088E+00  2.26296321E+00 -1.71986312E-02
  1.36114784E+00 -2.27517421E+00 -2.68861792E-02  1.36114769E+00  2.27517418E+00
 -2.68882045E-02 -5.48916735E+00 -3.07130455E-08  5.21889830E-02 -2.27953086E+00
 -4.05797491E+00 -3.68029303E-02 -2.27953050E+00  4.05797523E+00 -3.68032625E-02
  2.37970552E+00 -4.06363759E+00 -3.55741579E-02  2.37970666E+00  4.06363676E+00
 -3.55805345E-02 -6.25996754E+00  1.67179160E+00 -8.88504505E-01 -6.25996890E+00
 -1.67177257E+00 -8.88537466E-01 -6.18997662E+00 -1.90592335E-05  2.00074852E+00
  6.16344608E+00  1.56743555E+00  6.33853932E-01  6.16344662E+00 -1.56745009E+00
  6.33814434E-01
Force Field                                I                0
Int Atom Types                             I   N=          17
           0           0           0           0           0           0
           0           0           0           0           0           0
           0           0           0           0           0
MM charges                                 R   N=          17
  0.00000000E+00  0.00000000E+00  0.00000000E+00  0.00000000E+00  0.00000000E+00
  0.00000000E+00  0.00000000E+00  0.00000000E+00  0.00000000E+00  0.00000000E+00
  0.00000000E+00  0.00000000E+00  0.00000000E+00  0.00000000E+00  0.00000000E+00
  0.00000000E+00  0.00000000E+00
Integer atomic weights                     I   N=          17
          14          12          12          12          12          12
          12          12           1           1           1           1
           1           1           1           1           1
Real atomic weights                        R   N=          17
  1.40030740E+01  1.20000000E+01  1.20000000E+01  1.20000000E+01  1.20000000E+01
  1.20000000E+01  1.20000000E+01  1.20000000E+01  1.00782504E+00  1.00782504E+00
  1.00782504E+00  1.00782504E+00  1.00782504E+00  1.00782504E+00  1.00782504E+00
  1.00782504E+00  1.00782504E+00
Atom fragment info                         I   N=          17
           0           0           0           0           0           0
           0           0           0           0           0           0
           0           0           0           0           0
Atom residue num                           I   N=          17
           0           0           0           0           0           0
           0           0           0           0           0           0
           0           0           0           0           0
Nuclear spins                              I   N=          17
           2           0           0           0           0           0
           0           0           1           1           1           1
           1           1           1           1           1
Nuclear ZEff                               R   N=          17
 -4.55000000E+00 -3.60000000E+00 -3.60000000E+00 -3.60000000E+00 -3.60000000E+00
 -3.60000000E+00 -3.60000000E+00 -3.60000000E+00 -1.00000000E+00 -1.00000000E+00
 -1.00000000E+00 -1.00000000E+00 -1.00000000E+00 -1.00000000E+00 -1.00000000E+00
 -1.00000000E+00 -1.00000000E+00
Nuclear QMom                               R   N=          17
  2.04400000E+00  0.00000000E+00  0.00000000E+00  0.00000000E+00  0.00000000E+00
  0.00000000E+00  0.00000000E+00  0.00000000E+00  0.00000000E+00  0.00000000E+00
  0.00000000E+00  0.00000000E+00  0.00000000E+00  0.00000000E+00  0.00000000E+00
  0.00000000E+00  0.00000000E+00
Nuclear GFac                               R   N=          17
  4.03761000E-01  0.00000000E+00  0.00000000E+00  0.00000000E+00  0.00000000E+00
  0.00000000E+00  0.00000000E+00  0.00000000E+00  2.79284600E+00  2.79284600E+00
  2.79284600E+00  2.79284600E+00  2.79284600E+00  2.79284600E+00  2.79284600E+00
  2.79284600E+00  2.79284600E+00
MicOpt                                     I   N=          17
          -1          -1          -1          -1          -1          -1
          -1          -1          -1          -1          -1          -1
          -1          -1          -1          -1          -1
Number of contracted shells                I               50
Number of primitive shells                 I              124
Pure/Cartesian d shells                    I                1
Pure/Cartesian f shells                    I                0
Highest angular momentum                   I                2
Largest degree of contraction              I                6
Shell types                                I   N=          50
           0          -1          -1           2           0          -1
          -1           2           0          -1          -1           2
           0          -1          -1           2           0          -1
          -1           2           0          -1          -1           2
           0          -1          -1           2           0          -1
          -1           2           0           0           0           0
           0           0           0           0           0           0
           0           0           0           0           0           0
           0           0
Number of primitives per shell             I   N=          50
           6           3           1           1           6           3
           1           1           6           3           1           1
           6           3           1           1           6           3
           1           1           6           3           1           1
           6           3           1           1           6           3
           1           1           3           1           3           1
           3           1           3           1           3           1
           3           1           3           1           3           1
           3           1
Shell to atom map                          I   N=          50
           1           1           1           1           2           2
           2           2           3           3           3           3
           4           4           4           4           5           5
           5           5           6           6           6           6
           7           7           7           7           8           8
           8           8           9           9          10          10
          11          11          12          12          13          13
          14          14          15          15          16          16
          17          17
Primitive exponents                        R   N=         124
  4.17351146E+03  6.27457911E+02  1.42902093E+02  4.02343293E+01  1.28202129E+01
  4.39043701E+00  1.16263619E+01  2.71627981E+00  7.72218397E-01  2.12031498E-01
  8.00000000E-01  3.04752488E+03  4.57369518E+02  1.03948685E+02  2.92101553E+01
  9.28666296E+00  3.16392696E+00  7.86827235E+00  1.88128854E+00  5.44249258E-01
  1.68714478E-01  8.00000000E-01  3.04752488E+03  4.57369518E+02  1.03948685E+02
  2.92101553E+01  9.28666296E+00  3.16392696E+00  7.86827235E+00  1.88128854E+00
  5.44249258E-01  1.68714478E-01  8.00000000E-01  3.04752488E+03  4.57369518E+02
  1.03948685E+02  2.92101553E+01  9.28666296E+00  3.16392696E+00  7.86827235E+00
  1.88128854E+00  5.44249258E-01  1.68714478E-01  8.00000000E-01  3.04752488E+03
  4.57369518E+02  1.03948685E+02  2.92101553E+01  9.28666296E+00  3.16392696E+00
  7.86827235E+00  1.88128854E+00  5.44249258E-01  1.68714478E-01  8.00000000E-01
  3.04752488E+03  4.57369518E+02  1.03948685E+02  2.92101553E+01  9.28666296E+00
  3.16392696E+00  7.86827235E+00  1.88128854E+00  5.44249258E-01  1.68714478E-01
  8.00000000E-01  3.04752488E+03  4.57369518E+02  1.03948685E+02  2.92101553E+01
  9.28666296E+00  3.16392696E+00  7.86827235E+00  1.88128854E+00  5.44249258E-01
  1.68714478E-01  8.00000000E-01  3.04752488E+03  4.57369518E+02  1.03948685E+02
  2.92101553E+01  9.28666296E+00  3.16392696E+00  7.86827235E+00  1.88128854E+00
  5.44249258E-01  1.68714478E-01  8.00000000E-01  1.87311370E+01  2.82539436E+00
  6.40121692E-01  1.61277759E-01  1.87311370E+01  2.82539436E+00  6.40121692E-01
  1.61277759E-01  1.87311370E+01  2.82539436E+00  6.40121692E-01  1.61277759E-01
  1.87311370E+01  2.82539436E+00  6.40121692E-01  1.61277759E-01  1.87311370E+01
  2.82539436E+00  6.40121692E-01  1.61277759E-01  1.87311370E+01  2.82539436E+00
  6.40121692E-01  1.61277759E-01  1.87311370E+01  2.82539436E+00  6.40121692E-01
  1.61277759E-01  1.87311370E+01  2.82539436E+00  6.40121692E-01  1.61277759E-01
  1.87311370E+01  2.82539436E+00  6.40121692E-01  1.61277759E-01
Contraction coefficients                   R   N=         124
  1.83477216E-03  1.39946270E-02  6.85865518E-02  2.32240873E-01  4.69069948E-01
  3.60455199E-01 -1.14961182E-01 -1.69117479E-01  1.14585195E+00  1.00000000E+00
  1.00000000E+00  1.83473713E-03  1.40373228E-02  6.88426223E-02  2.32184443E-01
  4.67941348E-01  3.62311985E-01 -1.19332420E-01 -1.60854152E-01  1.14345644E+00
  1.00000000E+00  1.00000000E+00  1.83473713E-03  1.40373228E-02  6.88426223E-02
  2.32184443E-01  4.67941348E-01  3.62311985E-01 -1.19332420E-01 -1.60854152E-01
  1.14345644E+00  1.00000000E+00  1.00000000E+00  1.83473713E-03  1.40373228E-02
  6.88426223E-02  2.32184443E-01  4.67941348E-01  3.62311985E-01 -1.19332420E-01
 -1.60854152E-01  1.14345644E+00  1.00000000E+00  1.00000000E+00  1.83473713E-03
  1.40373228E-02  6.88426223E-02  2.32184443E-01  4.67941348E-01  3.62311985E-01
 -1.19332420E-01 -1.60854152E-01  1.14345644E+00  1.00000000E+00  1.00000000E+00
  1.83473713E-03  1.40373228E-02  6.88426223E-02  2.32184443E-01  4.67941348E-01
  3.62311985E-01 -1.19332420E-01 -1.60854152E-01  1.14345644E+00  1.00000000E+00
  1.00000000E+00  1.83473713E-03  1.40373228E-02  6.88426223E-02  2.32184443E-01
  4.67941348E-01  3.62311985E-01 -1.19332420E-01 -1.60854152E-01  1.14345644E+00
  1.00000000E+00  1.00000000E+00  1.83473713E-03  1.40373228E-02  6.88426223E-02
  2.32184443E-01  4.67941348E-01  3.62311985E-01 -1.19332420E-01 -1.60854152E-01
  1.14345644E+00  1.00000000E+00  1.00000000E+00  3.34946043E-02  2.34726953E-01
  8.13757326E-01  1.00000000E+00  3.34946043E-02  2.34726953E-01  8.13757326E-01
  1.00000000E+00  3.34946043E-02  2.34726953E-01  8.13757326E-01  1.00000000E+00
  3.34946043E-02  2.34726953E-01  8.13757326E-01  1.00000000E+00  3.34946043E-02
  2.34726953E-01  8.13757326E-01  1.00000000E+00  3.34946043E-02  2.34726953E-01
  8.13757326E-01  1.00000000E+00  3.34946043E-02  2.34726953E-01  8.13757326E-01
  1.00000000E+00  3.34946043E-02  2.34726953E-01  8.13757326E-01  1.00000000E+00
  3.34946043E-02  2.34726953E-01  8.13757326E-01  1.00000000E+00
P(S=P) Contraction coefficients            R   N=         124
  0.00000000E+00  0.00000000E+00  0.00000000E+00  0.00000000E+00  0.00000000E+00
  0.00000000E+00  6.75797439E-02  3.23907296E-01  7.40895140E-01  1.00000000E+00
  0.00000000E+00  0.00000000E+00  0.00000000E+00  0.00000000E+00  0.00000000E+00
  0.00000000E+00  0.00000000E+00  6.89990666E-02  3.16423961E-01  7.44308291E-01
  1.00000000E+00  0.00000000E+00  0.00000000E+00  0.00000000E+00  0.00000000E+00
  0.00000000E+00  0.00000000E+00  0.00000000E+00  6.89990666E-02  3.16423961E-01
  7.44308291E-01  1.00000000E+00  0.00000000E+00  0.00000000E+00  0.00000000E+00
  0.00000000E+00  0.00000000E+00  0.00000000E+00  0.00000000E+00  6.89990666E-02
  3.16423961E-01  7.44308291E-01  1.00000000E+00  0.00000000E+00  0.00000000E+00
  0.00000000E+00  0.00000000E+00  0.00000000E+00  0.00000000E+00  0.00000000E+00
  6.89990666E-02  3.16423961E-01  7.44308291E-01  1.00000000E+00  0.00000000E+00
  0.00000000E+00  0.00000000E+00  0.00000000E+00  0.00000000E+00  0.00000000E+00
  0.00000000E+00  6.89990666E-02  3.16423961E-01  7.44308291E-01  1.00000000E+00
  0.00000000E+00  0.00000000E+00  0.00000000E+00  0.00000000E+00  0.00000000E+00
  0.00000000E+00  0.00000000E+00  6.89990666E-02  3.16423961E-01  7.44308291E-01
  1.00000000E+00  0.00000000E+00  0.00000000E+00  0.00000000E+00  0.00000000E+00
  0.00000000E+00  0.00000000E+00  0.00000000E+00  6.89990666E-02  3.16423961E-01
  7.44308291E-01  1.00000000E+00  0.00000000E+00  0.00000000E+00  0.00000000E+00
  0.00000000E+00  0.00000000E+00  0.00000000E+00  0.00000000E+00  0.00000000E+00
  0.00000000E+00  0.00000000E+00  0.00000000E+00  0.00000000E+00  0.00000000E+00
  0.00000000E+00  0.00000000E+00  0.00000000E+00  0.00000000E+00  0.00000000E+00
  0.00000000E+00  0.00000000E+00  0.00000000E+00  0.00000000E+00  0.00000000E+00
  0.00000000E+00  0.00000000E+00  0.00000000E+00  0.00000000E+00  0.00000000E+00
  0.00000000E+00  0.00000000E+00  0.00000000E+00  0.00000000E+00  0.00000000E+00
  0.00000000E+00  0.00000000E+00  0.00000000E+00  0.00000000E+00
Coordinates of each shell                  R   N=         150
  5.37302878E+00  2.37526916E-06 -1.40789654E-01  5.37302878E+00  2.37526916E-06
 -1.40789654E-01  5.37302878E+00  2.37526916E-06 -1.40789654E-01  5.37302878E+00
  2.37526916E-06 -1.40789654E-01 -2.64307344E+00 -1.28157748E-07 -3.21476308E-02
 -2.64307344E+00 -1.28157748E-07 -3.21476308E-02 -2.64307344E+00 -1.28157748E-07
 -3.21476308E-02 -2.64307344E+00 -1.28157748E-07 -3.21476308E-02  2.71653899E+00
 -5.45632823E-07  7.94955115E-03  2.71653899E+00 -5.45632823E-07  7.94955115E-03
  2.71653899E+00 -5.45632823E-07  7.94955115E-03  2.71653899E+00 -5.45632823E-07
  7.94955115E-03 -1.27234149E+00 -2.26296273E+00 -1.71989644E-02 -1.27234149E+00
 -2.26296273E+00 -1.71989644E-02 -1.27234149E+00 -2.26296273E+00 -1.71989644E-02
 -1.27234149E+00 -2.26296273E+00 -1.71989644E-02 -1.27234088E+00  2.26296321E+00
 -1.71986312E-02 -1.27234088E+00  2.26296321E+00 -1.71986312E-02 -1.27234088E+00
  2.26296321E+00 -1.71986312E-02 -1.27234088E+00  2.26296321E+00 -1.71986312E-02
  1.36114784E+00 -2.27517421E+00 -2.68861792E-02  1.36114784E+00 -2.27517421E+00
 -2.68861792E-02  1.36114784E+00 -2.27517421E+00 -2.68861792E-02  1.36114784E+00
 -2.27517421E+00 -2.68861792E-02  1.36114769E+00  2.27517418E+00 -2.68882045E-02
  1.36114769E+00  2.27517418E+00 -2.68882045E-02  1.36114769E+00  2.27517418E+00
 -2.68882045E-02  1.36114769E+00  2.27517418E+00 -2.68882045E-02 -5.48916735E+00
 -3.07130455E-08  5.21889830E-02 -5.48916735E+00 -3.07130455E-08  5.21889830E-02
 -5.48916735E+00 -3.07130455E-08  5.21889830E-02 -5.48916735E+00 -3.07130455E-08
  5.21889830E-02 -2.27953086E+00 -4.05797491E+00 -3.68029303E-02 -2.27953086E+00
 -4.05797491E+00 -3.68029303E-02 -2.27953050E+00  4.05797523E+00 -3.68032625E-02
 -2.27953050E+00  4.05797523E+00 -3.68032625E-02  2.37970552E+00 -4.06363759E+00
 -3.55741579E-02  2.37970552E+00 -4.06363759E+00 -3.55741579E-02  2.37970666E+00
  4.06363676E+00 -3.55805345E-02  2.37970666E+00  4.06363676E+00 -3.55805345E-02
 -6.25996754E+00  1.67179160E+00 -8.88504505E-01 -6.25996754E+00  1.67179160E+00
 -8.88504505E-01 -6.25996890E+00 -1.67177257E+00 -8.88537466E-01 -6.25996890E+00
 -1.67177257E+00 -8.88537466E-01 -6.18997662E+00 -1.90592335E-05  2.00074852E+00
 -6.18997662E+00 -1.90592335E-05  2.00074852E+00  6.16344608E+00  1.56743555E+00
  6.33853932E-01  6.16344608E+00  1.56743555E+00  6.33853932E-01  6.16344662E+00
 -1.56745009E+00  6.33814434E-01  6.16344662E+00 -1.56745009E+00  6.33814434E-01
Constraint Structure                       R   N=          51
  5.37302878E+00  2.37526916E-06 -1.40789654E-01 -2.64307344E+00 -1.28157748E-07
 -3.21476308E-02  2.71653899E+00 -5.45632823E-07  7.94955115E-03 -1.27234149E+00
 -2.26296273E+00 -1.71989644E-02 -1.27234088E+00  2.26296321E+00 -1.71986312E-02
  1.36114784E+00 -2.27517421E+00 -2.68861792E-02  1.36114769E+00  2.27517418E+00
 -2.68882045E-02 -5.48916735E+00 -3.07130455E-08  5.21889830E-02 -2.27953086E+00
 -4.05797491E+00 -3.68029303E-02 -2.27953050E+00  4.05797523E+00 -3.68032625E-02
  2.37970552E+00 -4.06363759E+00 -3.55741579E-02  2.37970666E+00  4.06363676E+00
 -3.55805345E-02 -6.25996754E+00  1.67179160E+00 -8.88504505E-01 -6.25996890E+00
 -1.67177257E+00 -8.88537466E-01 -6.18997662E+00 -1.90592335E-05  2.00074852E+00
  6.16344608E+00  1.56743555E+00  6.33853932E-01  6.16344662E+00 -1.56745009E+00
  6.33814434E-01
Num ILSW                                   I              100
ILSW                                       I   N=         100
           0           1           0           0           2           0
           0           0           0           0           0          -1
           0           0           0           0           0           0
           0           0           0           0           1           0
           1           0           0           0           0           0
           0           0      100000           0          -1           0
           0           0           0           0           0           0
           0           0           0           1           1           0
           0           0           1           0           0           0
           0           0           4          40           0           0
           0           0           0           0           0           0
           0           0           0           0           0           0
           0           0           0           0           0           0
           0           0           0           0           0           0
           0           0           0           0           0           0
           0           0           0           0           0           0
           0           0           0           0
Num RLSW                                   I               40
RLSW                                       R   N=          40
  1.00000000E+00  1.00000000E+00  1.00000000E+00  1.00000000E+00  1.00000000E+00
  0.00000000E+00  0.00000000E+00  1.00000000E+00  0.00000000E+00  0.00000000E+00
  0.00000000E+00  0.00000000E+00  1.00000000E+00  0.00000000E+00  0.00000000E+00
  0.00000000E+00  0.00000000E+00  1.00000000E+00  0.00000000E+00  0.00000000E+00
  0.00000000E+00  0.00000000E+00  1.00000000E+00  0.00000000E+00  0.00000000E+00
  0.00000000E+00  0.00000000E+00  1.00000000E+00  0.00000000E+00  0.00000000E+00
  0.00000000E+00  0.00000000E+00  0.00000000E+00  0.00000000E+00  0.00000000E+00
  0.00000000E+00  0.00000000E+00  0.00000000E+00  1.00000000E+00  1.00000000E+00
MxBond                                     I                4
NBond                                      I   N=          17
           3           3           3           3           3           3
           3           4           1           1           1           1
           1           1           1           1           1
IBond                                      I   N=          68
           3          16          17           0           4           5
           8           0           1           6           7           0
           2           6           9           0           2           7
          10           0           3           4          11           0
           3           5          12           0           2          13
          14          15           4           0           0           0
           5           0           0           0           6           0
           0           0           7           0           0           0
           8           0           0           0           8           0
           0           0           8           0           0           0
           1           0           0           0           1           0
           0           0
RBond                                      R   N=          68
  1.00000000E+00  1.00000000E+00  1.00000000E+00  0.00000000E+00  1.50000000E+00
  1.50000000E+00  1.00000000E+00  0.00000000E+00  1.00000000E+00  1.50000000E+00
  1.50000000E+00  0.00000000E+00  1.50000000E+00  1.50000000E+00  1.00000000E+00
  0.00000000E+00  1.50000000E+00  1.50000000E+00  1.00000000E+00  0.00000000E+00
  1.50000000E+00  1.50000000E+00  1.00000000E+00  0.00000000E+00  1.50000000E+00
  1.50000000E+00  1.00000000E+00  0.00000000E+00  1.00000000E+00  1.00000000E+00
  1.00000000E+00  1.00000000E+00  1.00000000E+00  0.00000000E+00  0.00000000E+00
  0.00000000E+00  1.00000000E+00  0.00000000E+00  0.00000000E+00  0.00000000E+00
  1.00000000E+00  0.00000000E+00  0.00000000E+00  0.00000000E+00  1.00000000E+00
  0.00000000E+00  0.00000000E+00  0.00000000E+00  1.00000000E+00  0.00000000E+00
  0.00000000E+00  0.00000000E+00  1.00000000E+00  0.00000000E+00  0.00000000E+00
  0.00000000E+00  1.00000000E+00  0.00000000E+00  0.00000000E+00  0.00000000E+00
  1.00000000E+00  0.00000000E+00  0.00000000E+00  0.00000000E+00  1.00000000E+00
  0.00000000E+00  0.00000000E+00  0.00000000E+00
Virial Ratio                               R      2.002042411953071E+00
SCF Energy                                 R     -3.247648548834295E+02
MP2 Energy                                 R     -3.258205758802621E+02
Total Energy                               R     -3.258205758802621E+02
Post-SCF wavefunction norm                 R      1.657977973709323E+00
RMS Force                                  R      9.411720197502715E-08
RMS Density                                R      1.666160313695562E-09
External E-field                           R   N=          35
  0.00000000E+00  0.00000000E+00  0.00000000E+00  0.00000000E+00  0.00000000E+00
  0.00000000E+00  0.00000000E+00  0.00000000E+00  0.00000000E+00  0.00000000E+00
  0.00000000E+00  0.00000000E+00  0.00000000E+00  0.00000000E+00  0.00000000E+00
  0.00000000E+00  0.00000000E+00  0.00000000E+00  0.00000000E+00  0.00000000E+00
  0.00000000E+00  0.00000000E+00  0.00000000E+00  0.00000000E+00  0.00000000E+00
  0.00000000E+00  0.00000000E+00  0.00000000E+00  0.00000000E+00  0.00000000E+00
  0.00000000E+00  0.00000000E+00  0.00000000E+00  0.00000000E+00  0.00000000E+00
IOpCl                                      I                0
IROHF                                      I                0
Alpha Orbital Energies                     R   N=         138
 -1.55633418E+01 -1.12701345E+01 -1.12291365E+01 -1.12289879E+01 -1.12248282E+01
 -1.12220261E+01 -1.12220094E+01 -1.12177872E+01 -1.21342077E+00 -1.12472926E+00
 -1.01599755E+00 -1.00327662E+00 -9.11512618E-01 -8.26221096E-01 -7.84600518E-01
 -6.86082284E-01 -6.77729886E-01 -6.30422077E-01 -5.97268370E-01 -5.80129085E-01
 -5.73659705E-01 -5.67630121E-01 -5.27785452E-01 -5.17807777E-01 -4.90235645E-01
 -4.76357942E-01 -4.32008182E-01 -3.28360007E-01 -2.81297799E-01  1.46413598E-01
  1.65354052E-01  2.28238748E-01  2.46560948E-01  2.71931095E-01  2.74409182E-01
  3.06831952E-01  3.14123922E-01  3.37266148E-01  3.44085282E-01  3.53048102E-01
  3.96504897E-01  4.09646335E-01  4.73252079E-01  5.09565514E-01  5.20337151E-01
  5.29230738E-01  5.62943413E-01  6.83268484E-01  7.26604494E-01  7.31723616E-01
  7.46440546E-01  7.48906816E-01  7.85959290E-01  8.12364288E-01  8.25331771E-01
  8.40135772E-01  8.44866239E-01  8.46953774E-01  8.91960080E-01  8.94845995E-01
  9.02243500E-01  9.64219715E-01  9.75076832E-01  9.81183013E-01  1.00460947E+00
  1.03791199E+00  1.06995091E+00  1.10975948E+00  1.11449371E+00  1.12539769E+00
  1.15032218E+00  1.17361501E+00  1.17498331E+00  1.18824680E+00  1.18867664E+00
  1.20145442E+00  1.23212796E+00  1.24915170E+00  1.26229319E+00  1.27409817E+00
  1.32281628E+00  1.35355649E+00  1.43477146E+00  1.43949371E+00  1.45151959E+00
  1.52269738E+00  1.53225898E+00  1.64430160E+00  1.68361901E+00  1.71552594E+00
  1.72338472E+00  1.74838122E+00  1.76873683E+00  1.80609864E+00  1.82062143E+00
  2.07766637E+00  2.09247704E+00  2.13071037E+00  2.14809949E+00  2.18331069E+00
  2.20520236E+00  2.22074411E+00  2.23265613E+00  2.28125818E+00  2.31655383E+00
  2.37758167E+00  2.39863554E+00  2.43559273E+00  2.45530780E+00  2.49168347E+00
  2.53500544E+00  2.54455681E+00  2.58547172E+00  2.64892248E+00  2.66115738E+00
  2.67712044E+00  2.73939847E+00  2.81232533E+00  2.81579059E+00  2.83788285E+00
  2.94260581E+00  2.94728408E+00  3.02686008E+00  3.10849322E+00  3.16156409E+00
  3.20158586E+00  3.23321346E+00  3.25007226E+00  3.48182813E+00  3.79948357E+00
  4.26376337E+00  4.52402070E+00  4.54839524E+00  4.56546748E+00  4.67707766E+00
  4.76369077E+00  4.85491142E+00  5.14893616E+00
Alpha MO coefficients                      R   N=       19044
  9.95010694E-01  2.51302650E-02 -3.83883927E-04 -1.55101537E-08  1.18774676E-03
 -3.72555766E-03  1.14575855E-03  1.65570253E-08 -8.87472828E-04 -3.44904515E-03
 -3.40072059E-03 -3.21963511E-03  5.47138411E-11 -2.23642563E-05 -2.64448477E-09
 -6.15777718E-06 -2.92416646E-05 -2.19672079E-05  9.18312255E-11  2.24523983E-06
  4.08502237E-04  4.40928769E-04  2.67161359E-09 -1.07746129E-05 -9.22842779E-06
  5.34936108E-06 -1.43567752E-05  1.05621198E-10  6.16879735E-07 -1.76273250E-11
  2.43107577E-05  3.42086913E-04  1.22745201E-04  7.35760213E-10 -2.06096442E-05
  6.52972220E-04  2.73867947E-03 -1.40670669E-08  1.76776774E-04 -1.63411522E-04
 -5.22873192E-05 -6.18322877E-05  2.22064119E-10  8.57542730E-06 -2.22170880E-10
 -1.77239826E-06  4.67902495E-06 -2.71438233E-05 -1.65982703E-05  2.60486710E-07
 -8.51320557E-04 -2.45444962E-04 -2.29492521E-04  1.96025333E-05  9.43139108E-07
 -8.30282113E-06 -1.37347897E-05 -5.84274228E-06  2.56633214E-06  9.27431102E-07
 -1.77228998E-06  4.67963308E-06 -2.71440529E-05  1.65980318E-05  2.60466491E-07
 -8.51325038E-04 -2.45443616E-04  2.29498744E-04  1.96030732E-05  9.42950433E-07
 -8.30278401E-06 -1.37345696E-05  5.84273321E-06  2.56638846E-06 -9.27502139E-07
 -1.25500959E-05 -6.91998256E-05 -8.32166668E-06  3.13208532E-06 -1.26705324E-06
  1.12467889E-03 -6.99916768E-04  7.94539187E-04 -4.70062758E-05 -4.62202398E-05
  5.02851351E-05 -4.73416991E-05 -3.63183443E-05 -4.33624416E-06 -8.03225392E-06
 -1.25502460E-05 -6.92010650E-05 -8.32111907E-06 -3.13221059E-06 -1.26666204E-06
  1.12469764E-03 -6.99910176E-04 -7.94549310E-04 -4.70052711E-05 -4.62195730E-05
  5.02852896E-05 -4.73419225E-05  3.63179416E-05 -4.33614185E-06  8.03209599E-06
 -2.44209884E-06 -1.36614966E-05  8.16660537E-06 -3.88299173E-11  1.28272022E-06
  2.21764631E-04  8.29490583E-05 -3.08557898E-10 -1.15515244E-05  3.55780944E-06
 -3.24239804E-06 -3.53351872E-06 -7.83063926E-11  1.22808304E-07  2.84404995E-11
  7.96516227E-07 -2.43798001E-05  7.96220174E-07 -2.43811169E-05  4.13723120E-05
  2.93293481E-04  4.13721258E-05  2.93295205E-04 -4.75277674E-06 -1.17115311E-05
 -4.75280880E-06 -1.17116373E-05 -3.76390164E-06 -1.29060334E-06  3.19246357E-04
  4.54785385E-04  3.19247510E-04  4.54789251E-04 -1.70515544E-04  5.00175031E-04
  8.38792919E-05  1.40837387E-09  1.60205295E-05 -1.68685728E-03  1.11760168E-03
 -8.74011497E-09 -2.40608728E-04 -7.35340903E-04  9.82763865E-06  2.17760594E-04
 -1.24728361E-10  6.03787210E-05 -1.54008749E-09 -2.60501743E-04 -2.29150461E-04
 -7.37192100E-05 -1.21024524E-10 -2.68473849E-06  3.53514436E-03  2.68803449E-03
 -4.63418153E-09  9.24854763E-06 -2.00532020E-05  2.36825858E-05 -8.51337611E-05
 -1.60713908E-10  3.29939153E-06 -8.15268006E-11  9.95615423E-01  2.73414113E-02
  4.14421022E-04  6.01952802E-11 -9.53772202E-05 -1.55721895E-02  6.22755972E-03
  1.82317207E-08  2.00891852E-04 -1.26310974E-03 -1.44781218E-03 -2.22623823E-03
  1.99681741E-09 -3.97027079E-05  7.74329418E-11  1.13836520E-04  7.11378027E-05
 -3.85356437E-05 -1.36581415E-05 -4.71636235E-06 -4.24997211E-03 -1.19205557E-03
 -2.08125016E-03  3.57534882E-05  1.07761978E-04  3.22811015E-05  2.90859748E-05
  3.50645746E-05  4.96921119E-06  7.36013627E-06  1.13836194E-04  7.11373511E-05
 -3.85354118E-05  1.36584226E-05 -4.71645956E-06 -4.24996844E-03 -1.19205965E-03
  2.08124246E-03  3.57550692E-05  1.07762253E-04  3.22811240E-05  2.90857653E-05
 -3.50643386E-05  4.96925749E-06 -7.36050494E-06  1.15215338E-02 -5.56390508E-05
 -1.58100774E-05 -1.47962894E-04 -2.09933379E-06  8.22315536E-03 -1.03054323E-03
  4.28446200E-03 -1.48775088E-06 -4.06396080E-04 -3.56064593E-04 -2.13630763E-04
 -1.19382338E-04 -9.58415854E-06 -7.80256253E-06  1.15214885E-02 -5.56378170E-05
 -1.58100437E-05  1.47961956E-04 -2.09935299E-06  8.22313107E-03 -1.03055501E-03
 -4.28444609E-03 -1.48333133E-06 -4.06396724E-04 -3.56064581E-04 -2.13630596E-04
  1.19383294E-04 -9.58437235E-06  7.80284101E-06  5.46149934E-06 -2.75531371E-05
  4.16653197E-05 -2.28072656E-11  5.28275743E-06  9.50782645E-04  3.50582436E-04