
    -----------------------------------------------------------------------
          Psi4: An Open-Source Ab Initio Electronic Structure Package
                               Psi4 1.3.2 release

                         Git: Rev {HEAD} ecbda83 


    R. M. Parrish, L. A. Burns, D. G. A. Smith, A. C. Simmonett,
    A. E. DePrince III, E. G. Hohenstein, U. Bozkaya, A. Yu. Sokolov,
    R. Di Remigio, R. M. Richard, J. F. Gonthier, A. M. James,
    H. R. McAlexander, A. Kumar, M. Saitow, X. Wang, B. P. Pritchard,
    P. Verma, H. F. Schaefer III, K. Patkowski, R. A. King, E. F. Valeev,
    F. A. Evangelista, J. M. Turney, T. D. Crawford, and C. D. Sherrill,
    J. Chem. Theory Comput. 13(7) pp 3185--3197 (2017).
    (doi: 10.1021/acs.jctc.7b00174)


                         Additional Contributions by
    P. Kraus, H. Kruse, M. H. Lechner, M. C. Schieber, R. A. Shaw,
    A. Alenaizan, R. Galvelis, Z. L. Glick, S. Lehtola, and J. P. Misiewicz

    -----------------------------------------------------------------------


    Psi4 started on: Friday, 06 November 2020 06:37AM

    Process ID: 10054
    Host:       node37.bme.utexas.edu
    PSIDATADIR: /home/xy3866/psi4conda/share/psi4
    Memory:     500.0 MiB
    Threads:    8
    
  ==> Input File <==

--------------------------------------------------------------------------
#psi4
#
memory 32 gb

molecule  {
0 1
  C       -0.5088830     1.3115130    -0.0227420
  C       -1.3513751     0.1850546     0.0254555
  C        0.8813450     1.0964750     0.0226560
  C       -0.8813440    -1.0964340    -0.0226940
  C        1.3902270    -0.2150110    -0.0227900
  C        0.5089060    -1.3114930     0.0226680
  C       -1.0556670     2.7203130    -0.0874900
  C       -2.8836500     0.4458940     0.0875300
  C        1.8281740     2.2742730     0.0874930
  C       -1.8282270    -2.2741900    -0.0874960
  C        2.8836660    -0.4460300    -0.0874310
  C        1.0556730    -2.7203040     0.0874750
  H       -1.2228990     3.1507820     0.9082400
  H       -0.3731520     3.3838700    -0.6219980
  H       -2.0070850     2.7494970    -0.6221200
  H       -3.1169600     1.3690200     0.6216180
  H       -3.3401820     0.5158720    -0.9081780
  H       -3.3845810    -0.3632220     0.6225760
  H        2.7440520     2.0146320     0.6219170
  H        1.3780590     3.1129020     0.6222310
  H        2.1174310     2.6343160    -0.9082230
  H       -1.3778060    -3.1130310    -0.6216310
  H       -2.1180860    -2.6338480     0.9081850
  H       -2.7438120    -2.0147100    -0.6225210
  H        3.3400770    -0.5159510     0.9083360
  H        3.1168940    -1.3692350    -0.6214080
  H        3.3848100     0.3629430    -0.6224920
  H        0.3729260    -3.3838390     0.6217170
  H        1.2232470    -3.1507440    -0.9082080
  H        2.0069120    -2.7495520     0.6224200
units angstrom
no_reorient  #important for SAPT in psi4, default
symmetry c1  #important for SAPT in psi4, default
}

set PROPERTIES_ORIGIN ["COM"]
properties('MP2/aug-cc-pvtz', properties = ['dipole'])
--------------------------------------------------------------------------

  Memory set to  29.802 GiB by Python driver.
    SCF Algorithm Type (re)set to DF.

*** tstart() called on node37.bme.utexas.edu
*** at Fri Nov  6 06:37:49 2020

   => Loading Basis Set <=

    Name: AUG-CC-PVTZ
    Role: ORBITAL
    Keyword: BASIS
    atoms 1-12  entry C          line   235 file /home/xy3866/psi4conda/share/psi4/basis/aug-cc-pvtz.gbs 
    atoms 13-30 entry H          line    36 file /home/xy3866/psi4conda/share/psi4/basis/aug-cc-pvtz.gbs 


         ---------------------------------------------------------
                                   SCF
               by Justin Turney, Rob Parrish, Andy Simmonett
                          and Daniel G. A. Smith
                              RHF Reference
                        8 Threads,  30517 MiB Core
         ---------------------------------------------------------

  ==> Geometry <==

    Molecular point group: c1
    Full point group: C1

    Geometry (in Angstrom), charge = 0, multiplicity = 1:

       Center              X                  Y                   Z               Mass       
    ------------   -----------------  -----------------  -----------------  -----------------
         C           -0.511756936984     1.313730659094    -0.022939844080    12.000000000000
         C           -1.354249036984     0.187272259094     0.025257655920    12.000000000000
         C            0.878471063016     1.098692659094     0.022458155920    12.000000000000
         C           -0.884217936984    -1.094216340906    -0.022891844080    12.000000000000
         C            1.387353063016    -0.212793340906    -0.022987844080    12.000000000000
         C            0.506032063016    -1.309275340906     0.022470155920    12.000000000000
         C           -1.058540936984     2.722530659094    -0.087687844080    12.000000000000
         C           -2.886523936984     0.448111659094     0.087332155920    12.000000000000
         C            1.825300063016     2.276490659094     0.087295155920    12.000000000000
         C           -1.831100936984    -2.271972340906    -0.087693844080    12.000000000000
         C            2.880792063016    -0.443812340906    -0.087628844080    12.000000000000
         C            1.052799063016    -2.718086340906     0.087277155920    12.000000000000
         H           -1.225772936984     3.152999659094     0.908042155920     1.007825032230
         H           -0.376025936984     3.386087659094    -0.622195844080     1.007825032230
         H           -2.009958936984     2.751714659094    -0.622317844080     1.007825032230
         H           -3.119833936984     1.371237659094     0.621420155920     1.007825032230
         H           -3.343055936984     0.518089659094    -0.908375844080     1.007825032230
         H           -3.387454936984    -0.361004340906     0.622378155920     1.007825032230
         H            2.741178063016     2.016849659094     0.621719155920     1.007825032230
         H            1.375185063016     3.115119659094     0.622033155920     1.007825032230
         H            2.114557063016     2.636533659094    -0.908420844080     1.007825032230
         H           -1.380679936984    -3.110813340906    -0.621828844080     1.007825032230
         H           -2.120959936984    -2.631630340906     0.907987155920     1.007825032230
         H           -2.746685936984    -2.012492340906    -0.622718844080     1.007825032230
         H            3.337203063016    -0.513733340906     0.908138155920     1.007825032230
         H            3.114020063016    -1.367017340906    -0.621605844080     1.007825032230
         H            3.381936063016     0.365160659094    -0.622689844080     1.007825032230
         H            0.370052063016    -3.381621340906     0.621519155920     1.007825032230
         H            1.220373063016    -3.148526340906    -0.908405844080     1.007825032230
         H            2.004038063016    -2.747334340906     0.622222155920     1.007825032230

  Running in c1 symmetry.

  Rotational constants: A =      0.03432  B =      0.03421  C =      0.01750 [cm^-1]
  Rotational constants: A =   1029.03488  B =   1025.67891  C =    524.61634 [MHz]
  Nuclear repulsion =  714.520450531833490

  Charge       = 0
  Multiplicity = 1
  Electrons    = 90
  Nalpha       = 45
  Nbeta        = 45

  ==> Algorithm <==

  SCF Algorithm Type is DF.
  DIIS enabled.
  MOM disabled.
  Fractional occupation disabled.
  Guess Type is SAD.
  Energy threshold   = 1.00e-10
  Density threshold  = 1.00e-10
  Integral threshold = 0.00e+00

  ==> Primary Basis <==

  Basis Set: AUG-CC-PVTZ
    Blend: AUG-CC-PVTZ
    Number of shells: 330
    Number of basis function: 966
    Number of Cartesian functions: 1110
    Spherical Harmonics?: true
    Max angular momentum: 3

   => Loading Basis Set <=

    Name: (AUG-CC-PVTZ AUX)
    Role: JKFIT
    Keyword: DF_BASIS_SCF
    atoms 1-12  entry C          line   162 file /home/xy3866/psi4conda/share/psi4/basis/aug-cc-pvtz-jkfit.gbs 
    atoms 13-30 entry H          line    70 file /home/xy3866/psi4conda/share/psi4/basis/aug-cc-pvtz-jkfit.gbs 

  ==> Pre-Iterations <==

   -------------------------------------------------------
    Irrep   Nso     Nmo     Nalpha   Nbeta   Ndocc  Nsocc
   -------------------------------------------------------
     A        966     966       0       0       0       0
   -------------------------------------------------------
    Total     966     966      45      45      45       0
   -------------------------------------------------------

  ==> Integral Setup <==

  DFHelper Memory: AOs need 13.516 GiB; user supplied 22.352 GiB. Using in-core AOs.

  ==> MemDFJK: Density-Fitted J/K Matrices <==

    J tasked:                   Yes
    K tasked:                   Yes
    wK tasked:                   No
    OpenMP threads:               8
    Memory [MiB]:             22888
    Algorithm:                 Disk
    Schwarz Cutoff:           1E-12
    Mask sparsity (%):       8.2649
    Fitting Condition:        1E-10

   => Auxiliary Basis Set <=

  Basis Set: (AUG-CC-PVTZ AUX)
    Blend: AUG-CC-PVTZ-JKFIT
    Number of shells: 612
    Number of basis function: 2076
    Number of Cartesian functions: 2562
    Spherical Harmonics?: true
    Max angular momentum: 4

  Minimum eigenvalue in the overlap matrix is 1.1682300106E-07.
  Using Symmetric Orthogonalization.

  SCF Guess: Superposition of Atomic Densities via on-the-fly atomic UHF.

  ==> Iterations <==

                           Total Energy        Delta E     RMS |[F,P]|

   @DF-RHF iter SAD:  -464.97750432858163   -4.64978e+02   0.00000e+00 
   @DF-RHF iter   1:  -464.56842181262010    4.09083e-01   8.75957e-04 DIIS
   @DF-RHF iter   2:  -464.97225162100796   -4.03830e-01   3.70512e-04 DIIS
   @DF-RHF iter   3:  -465.04430878423568   -7.20572e-02   7.72225e-05 DIIS
   @DF-RHF iter   4:  -465.04996846394204   -5.65968e-03   2.55611e-05 DIIS
   @DF-RHF iter   5:  -465.05037247571414   -4.04012e-04   5.92787e-06 DIIS
   @DF-RHF iter   6:  -465.05040135662784   -2.88809e-05   1.43700e-06 DIIS
   @DF-RHF iter   7:  -465.05040272515885   -1.36853e-06   6.11444e-07 DIIS
   @DF-RHF iter   8:  -465.05040298511358   -2.59955e-07   1.45696e-07 DIIS
   @DF-RHF iter   9:  -465.05040302188121   -3.67676e-08   6.11446e-08 DIIS
   @DF-RHF iter  10:  -465.05040303458480   -1.27036e-08   2.73919e-08 DIIS
   @DF-RHF iter  11:  -465.05040303701446   -2.42966e-09   1.24415e-08 DIIS
   @DF-RHF iter  12:  -465.05040303737690   -3.62434e-10   2.75847e-09 DIIS
   @DF-RHF iter  13:  -465.05040303738980   -1.29035e-11   1.21345e-09 DIIS
   @DF-RHF iter  14:  -465.05040303739224   -2.44427e-12   5.50428e-10 DIIS
   @DF-RHF iter  15:  -465.05040303738940    2.84217e-12   2.60188e-10 DIIS
   @DF-RHF iter  16:  -465.05040303739327   -3.86535e-12   1.23222e-10 DIIS
   @DF-RHF iter  17:  -465.05040303739082    2.44427e-12   4.73945e-11 DIIS
  Energy and wave function converged.


  ==> Post-Iterations <==

    Orbital Energies [Eh]
    ---------------------

    Doubly Occupied:                                                      

       1A    -11.223891     2A    -11.223512     3A    -11.222742  
       4A    -11.221880     5A    -11.220923     6A    -11.218367  
       7A    -11.215633     8A    -11.214739     9A    -11.214691  
      10A    -11.214300    11A    -11.214244    12A    -11.214209  
      13A     -1.156892    14A     -1.067844    15A     -1.063466  
      16A     -0.977182    17A     -0.973079    18A     -0.943630  
      19A     -0.936771    20A     -0.869220    21A     -0.865568  
      22A     -0.749194    23A     -0.743446    24A     -0.678889  
      25A     -0.616866    26A     -0.600934    27A     -0.574114  
      28A     -0.572724    29A     -0.570925    30A     -0.570400  
      31A     -0.566730    32A     -0.547966    33A     -0.546414  
      34A     -0.537409    35A     -0.531247    36A     -0.524157  
      37A     -0.522541    38A     -0.521069    39A     -0.515054  
      40A     -0.495976    41A     -0.456128    42A     -0.443374  
      43A     -0.442152    44A     -0.299702    45A     -0.293601  

    Virtual:                                                              

      46A      0.030006    47A      0.030744    48A      0.030900  
      49A      0.038568    50A      0.042417    51A      0.042473  
      52A      0.049742    53A      0.049860    54A      0.057582  
      55A      0.062570    56A      0.067484    57A      0.067528  
      58A      0.069642    59A      0.083920    60A      0.083925  
      61A      0.094845    62A      0.095564    63A      0.095700  
      64A      0.097471    65A      0.108260    66A      0.108500  
      67A      0.116948    68A      0.116963    69A      0.120705  
      70A      0.120812    71A      0.121828    72A      0.130642  
      73A      0.132959    74A      0.133094    75A      0.138342  
      76A      0.139310    77A      0.144531    78A      0.145422  
      79A      0.149965    80A      0.150283    81A      0.157957  
      82A      0.161013    83A      0.166888    84A      0.167310  
      85A      0.173106    86A      0.173264    87A      0.173876  
      88A      0.174030    89A      0.175301    90A      0.180742  
      91A      0.181127    92A      0.181769    93A      0.188865  
      94A      0.205915    95A      0.206078    96A      0.206868  
      97A      0.212695    98A      0.220165    99A      0.220707  
     100A      0.222722   101A      0.232774   102A      0.233084  
     103A      0.241672   104A      0.241846   105A      0.249033  
     106A      0.252322   107A      0.252611   108A      0.254825  
     109A      0.261553   110A      0.261860   111A      0.262749  
     112A      0.262808   113A      0.273943   114A      0.274230  
     115A      0.278383   116A      0.292904   117A      0.293823  
     118A      0.296031   119A      0.296292   120A      0.306210  
     121A      0.306783   122A      0.307062   123A      0.321852  
     124A      0.337962   125A      0.339797   126A      0.350149  
     127A      0.350214   128A      0.356381   129A      0.364674  
     130A      0.365061   131A      0.365384   132A      0.365447  
     133A      0.366005   134A      0.375019   135A      0.381491  
     136A      0.382606   137A      0.383480   138A      0.383648  
     139A      0.385998   140A      0.386145   141A      0.387012  
     142A      0.387300   143A      0.387494   144A      0.391904  
     145A      0.392146   146A      0.409926   147A      0.419987  
     148A      0.420319   149A      0.420479   150A      0.422392  
     151A      0.427155   152A      0.427248   153A      0.433762  
     154A      0.434321   155A      0.435403   156A      0.441896  
     157A      0.444853   158A      0.448129   159A      0.449371  
     160A      0.450895   161A      0.451162   162A      0.457249  
     163A      0.457375   164A      0.467253   165A      0.468185  
     166A      0.468332   167A      0.470695   168A      0.474307  
     169A      0.474438   170A      0.486266   171A      0.486674  
     172A      0.489257   173A      0.490024   174A      0.492187  
     175A      0.495664   176A      0.496287   177A      0.502979  
     178A      0.512463   179A      0.513069   180A      0.515068  
     181A      0.518643   182A      0.518967   183A      0.519253  
     184A      0.519694   185A      0.525014   186A      0.529140  
     187A      0.529819   188A      0.531366   189A      0.532248  
     190A      0.537319   191A      0.540912   192A      0.541580  
     193A      0.557673   194A      0.559242   195A      0.560033  
     196A      0.561104   197A      0.561645   198A      0.563758  
     199A      0.568110   200A      0.582488   201A      0.586672  
     202A      0.587626   203A      0.591396   204A      0.591794  
     205A      0.593219   206A      0.602735   207A      0.605543  
     208A      0.607101   209A      0.607416   210A      0.609534  
     211A      0.609683   212A      0.625926   213A      0.628298  
     214A      0.629547   215A      0.646411   216A      0.646837  
     217A      0.646996   218A      0.658578   219A      0.659240  
     220A      0.660043   221A      0.664223   222A      0.665921  
     223A      0.678652   224A      0.683094   225A      0.684123  
     226A      0.684662   227A      0.685021   228A      0.699298  
     229A      0.699482   230A      0.700117   231A      0.700632  
     232A      0.712035   233A      0.726028   234A      0.726169  
     235A      0.742074   236A      0.744066   237A      0.744403  
     238A      0.749057   239A      0.759708   240A      0.760269  
     241A      0.760673   242A      0.762042   243A      0.763575  
     244A      0.782373   245A      0.798831   246A      0.800137  
     247A      0.801870   248A      0.813112   249A      0.813573  
     250A      0.822653   251A      0.834107   252A      0.837125  
     253A      0.847123   254A      0.850209   255A      0.850970  
     256A      0.852243   257A      0.868476   258A      0.869646  
     259A      0.869958   260A      0.881353   261A      0.881843  
     262A      0.885134   263A      0.885503   264A      0.887407  
     265A      0.890538   266A      0.898584   267A      0.901878  
     268A      0.910385   269A      0.916116   270A      0.924861  
     271A      0.925853   272A      0.927730   273A      0.928785  
     274A      0.929311   275A      0.935333   276A      0.946726  
     277A      0.947834   278A      0.948294   279A      0.949654  
     280A      0.950608   281A      0.957645   282A      0.959548  
     283A      0.963894   284A      0.964274   285A      0.964618  
     286A      0.972579   287A      0.982224   288A      0.983130  
     289A      0.983677   290A      0.984648   291A      0.993320  
     292A      0.993807   293A      0.995987   294A      0.996490  
     295A      0.997140   296A      1.005619   297A      1.017984  
     298A      1.018138   299A      1.021086   300A      1.021619  
     301A      1.029788   302A      1.031154   303A      1.041096  
     304A      1.045298   305A      1.047605   306A      1.048380  
     307A      1.048974   308A      1.050836   309A      1.054280  
     310A      1.058359   311A      1.058925   312A      1.068943  
     313A      1.070961   314A      1.075573   315A      1.079087  
     316A      1.091807   317A      1.092420   318A      1.097913  
     319A      1.104610   320A      1.106973   321A      1.107732  
     322A      1.119046   323A      1.120849   324A      1.120992  
     325A      1.129826   326A      1.134212   327A      1.143187  
     328A      1.147132   329A      1.147632   330A      1.148331  
     331A      1.148788   332A      1.177319   333A      1.179112  
     334A      1.181103   335A      1.192994   336A      1.194762  
     337A      1.195209   338A      1.195711   339A      1.196125  
     340A      1.204700   341A      1.205580   342A      1.207679  
     343A      1.208453   344A      1.228248   345A      1.228618  
     346A      1.242459   347A      1.247933   348A      1.249680  
     349A      1.252178   350A      1.252725   351A      1.254726  
     352A      1.256242   353A      1.265697   354A      1.274601  
     355A      1.285217   356A      1.287118   357A      1.287406  
     358A      1.295728   359A      1.297756   360A      1.301437  
     361A      1.304778   362A      1.305080   363A      1.316971  
     364A      1.321169   365A      1.321199   366A      1.322199  
     367A      1.326987   368A      1.349331   369A      1.349617  
     370A      1.352388   371A      1.353981   372A      1.359054  
     373A      1.360084   374A      1.367110   375A      1.368826  
     376A      1.378559   377A      1.387450   378A      1.400369  
     379A      1.400826   380A      1.404108   381A      1.404705  
     382A      1.414016   383A      1.415017   384A      1.415394  
     385A      1.450371   386A      1.450776   387A      1.459753  
     388A      1.460306   389A      1.473071   390A      1.474650  
     391A      1.481813   392A      1.482470   393A      1.482921  
     394A      1.484541   395A      1.485885   396A      1.490850  
     397A      1.491457   398A      1.499996   399A      1.521515  
     400A      1.524419   401A      1.525489   402A      1.537486  
     403A      1.539125   404A      1.539469   405A      1.544059  
     406A      1.549554   407A      1.551054   408A      1.554578  
     409A      1.556439   410A      1.564311   411A      1.570738  
     412A      1.571740   413A      1.574399   414A      1.575659  
     415A      1.585127   416A      1.587046   417A      1.601202  
     418A      1.602387   419A      1.604982   420A      1.624396  
     421A      1.626280   422A      1.644428   423A      1.647386  
     424A      1.661193   425A      1.671291   426A      1.676172  
     427A      1.680089   428A      1.683969   429A      1.687885  
     430A      1.689534   431A      1.691398   432A      1.699912  
     433A      1.700499   434A      1.702753   435A      1.703695  
     436A      1.709700   437A      1.709946   438A      1.711888  
     439A      1.712294   440A      1.715963   441A      1.717285  
     442A      1.727453   443A      1.733799   444A      1.735059  
     445A      1.736878   446A      1.740727   447A      1.741532  
     448A      1.767888   449A      1.769033   450A      1.773555  
     451A      1.776810   452A      1.779249   453A      1.779800  
     454A      1.787985   455A      1.788865   456A      1.792031  
     457A      1.794253   458A      1.814548   459A      1.814907  
     460A      1.824500   461A      1.830433   462A      1.832905  
     463A      1.840943   464A      1.848972   465A      1.851459  
     466A      1.857497   467A      1.858863   468A      1.859509  
     469A      1.870954   470A      1.873930   471A      1.874494  
     472A      1.878677   473A      1.891212   474A      1.893186  
     475A      1.896133   476A      1.897372   477A      1.909358  
     478A      1.917345   479A      1.925120   480A      1.929543  
     481A      1.931539   482A      1.934364   483A      1.935703  
     484A      1.942683   485A      1.963154   486A      1.963622  
     487A      1.966540   488A      1.967566   489A      1.975665  
     490A      2.001662   491A      2.003420   492A      2.006427  
     493A      2.011222   494A      2.012778   495A      2.019768  
     496A      2.033598   497A      2.035094   498A      2.035615  
     499A      2.036294   500A      2.055559   501A      2.056492  
     502A      2.078552   503A      2.082557   504A      2.086891  
     505A      2.098113   506A      2.103266   507A      2.104320  
     508A      2.106776   509A      2.127067   510A      2.130432  
     511A      2.134174   512A      2.137031   513A      2.144019  
     514A      2.167949   515A      2.172069   516A      2.188907  
     517A      2.189966   518A      2.191801   519A      2.195501  
     520A      2.203212   521A      2.205833   522A      2.208226  
     523A      2.210703   524A      2.211379   525A      2.228242  
     526A      2.236756   527A      2.238610   528A      2.263879  
     529A      2.266384   530A      2.269804   531A      2.274117  
     532A      2.274739   533A      2.276638   534A      2.277356  
     535A      2.279827   536A      2.280515   537A      2.296464  
     538A      2.299659   539A      2.308436   540A      2.321254  
     541A      2.323489   542A      2.339147   543A      2.350885  
     544A      2.351546   545A      2.363890   546A      2.367059  
     547A      2.376865   548A      2.380553   549A      2.381257  
     550A      2.383346   551A      2.402166   552A      2.402455  
     553A      2.404400   554A      2.405541   555A      2.411852  
     556A      2.414533   557A      2.426366   558A      2.436454  
     559A      2.449398   560A      2.468030   561A      2.470576  
     562A      2.471465   563A      2.471682   564A      2.474755  
     565A      2.475977   566A      2.507192   567A      2.516425  
     568A      2.523470   569A      2.525461   570A      2.526583  
     571A      2.534234   572A      2.540535   573A      2.547810  
     574A      2.590342   575A      2.591677   576A      2.634291  
     577A      2.645020   578A      2.649044   579A      2.657851  
     580A      2.658709   581A      2.663838   582A      2.672296  
     583A      2.677896   584A      2.741906   585A      2.752182  
     586A      2.754320   587A      2.758106   588A      2.760264  
     589A      2.778013   590A      2.785371   591A      2.816397  
     592A      2.820357   593A      2.829426   594A      2.843066  
     595A      2.856690   596A      2.858737   597A      2.861129  
     598A      2.923815   599A      2.946100   600A      3.009305  
     601A      3.011868   602A      3.047184   603A      3.072958  
     604A      3.086277   605A      3.099063   606A      3.104287  
     607A      3.156095   608A      3.199400   609A      3.337749  
     610A      3.366718   611A      3.369699   612A      3.391953  
     613A      3.400952   614A      3.431695   615A      3.437746  
     616A      3.459513   617A      3.460805   618A      3.474989  
     619A      3.476179   620A      3.479961   621A      3.491207  
     622A      3.502877   623A      3.506926   624A      3.511214  
     625A      3.514764   626A      3.547529   627A      3.555322  
     628A      3.557318   629A      3.558766   630A      3.559791  
     631A      3.572658   632A      3.578211   633A      3.587483  
     634A      3.590941   635A      3.593812   636A      3.607901  
     637A      3.638596   638A      3.642103   639A      3.655434  
     640A      3.656246   641A      3.659043   642A      3.665109  
     643A      3.665872   644A      3.679573   645A      3.681635  
     646A      3.692499   647A      3.703197   648A      3.705171  
     649A      3.729821   650A      3.732540   651A      3.733424  
     652A      3.752307   653A      3.754842   654A      3.771552  
     655A      3.773373   656A      3.779316   657A      3.782020  
     658A      3.786190   659A      3.789178   660A      3.792555  
     661A      3.796147   662A      3.801264   663A      3.810445  
     664A      3.818490   665A      3.824694   666A      3.838620  
     667A      3.846964   668A      3.848580   669A      3.851029  
     670A      3.868809   671A      3.871755   672A      3.874941  
     673A      3.886228   674A      3.889727   675A      3.890666  
     676A      3.891572   677A      3.907647   678A      3.917627  
     679A      3.921120   680A      3.927564   681A      3.928220  
     682A      3.933527   683A      3.934252   684A      3.953871  
     685A      3.960658   686A      3.970077   687A      3.976726  
     688A      3.980089   689A      3.987932   690A      3.988538  
     691A      3.992339   692A      3.993184   693A      3.995393  
     694A      3.996018   695A      4.004071   696A      4.007399  
     697A      4.009915   698A      4.010753   699A      4.012564  
     700A      4.013474   701A      4.013796   702A      4.049714  
     703A      4.054827   704A      4.055429   705A      4.064893  
     706A      4.066728   707A      4.072391   708A      4.075937  
     709A      4.085422   710A      4.087187   711A      4.094856  
     712A      4.098323   713A      4.124909   714A      4.128107  
     715A      4.136772   716A      4.152057   717A      4.152914  
     718A      4.167048   719A      4.172298   720A      4.178593  
     721A      4.189513   722A      4.202251   723A      4.205332  
     724A      4.210316   725A      4.227136   726A      4.230176  
     727A      4.234892   728A      4.246684   729A      4.247862  
     730A      4.264657   731A      4.268273   732A      4.270258  
     733A      4.272674   734A      4.273007   735A      4.288803  
     736A      4.290683   737A      4.303512   738A      4.305976  
     739A      4.306962   740A      4.308062   741A      4.317318  
     742A      4.320401   743A      4.323193   744A      4.331832  
     745A      4.332995   746A      4.336664   747A      4.339736  
     748A      4.352276   749A      4.361975   750A      4.365219  
     751A      4.370950   752A      4.394354   753A      4.411068  
     754A      4.415287   755A      4.451055   756A      4.461864  
     757A      4.471756   758A      4.477112   759A      4.480145  
     760A      4.488728   761A      4.491572   762A      4.500770  
     763A      4.507243   764A      4.515194   765A      4.525001  
     766A      4.527138   767A      4.529046   768A      4.542796  
     769A      4.545645   770A      4.556381   771A      4.565059  
     772A      4.567370   773A      4.578807   774A      4.583452  
     775A      4.627411   776A      4.631399   777A      4.633579  
     778A      4.641974   779A      4.643526   780A      4.649675  
     781A      4.656860   782A      4.657380   783A      4.662066  
     784A      4.671716   785A      4.691469   786A      4.693156  
     787A      4.697457   788A      4.702659   789A      4.706799  
     790A      4.710648   791A      4.713930   792A      4.717009  
     793A      4.720726   794A      4.725055   795A      4.730742  
     796A      4.734046   797A      4.755826   798A      4.758934  
     799A      4.786048   800A      4.789681   801A      4.791999  
     802A      4.794487   803A      4.846548   804A      4.850679  
     805A      4.853640   806A      4.863264   807A      4.869611  
     808A      4.875164   809A      4.882885   810A      4.884307  
     811A      4.888414   812A      4.900146   813A      4.902562  
     814A      4.907637   815A      4.908549   816A      4.915738  
     817A      4.918351   818A      4.930378   819A      4.944819  
     820A      4.947045   821A      4.966907   822A      4.969247  
     823A      4.979574   824A      4.995190   825A      4.997895  
     826A      4.999497   827A      4.999846   828A      5.007913  
     829A      5.014025   830A      5.024260   831A      5.065844  
     832A      5.070350   833A      5.101631   834A      5.104462  
     835A      5.109176   836A      5.115280   837A      5.130593  
     838A      5.134989   839A      5.161677   840A      5.166686  
     841A      5.182188   842A      5.188994   843A      5.201199  
     844A      5.201965   845A      5.220097   846A      5.237999  
     847A      5.244227   848A      5.252229   849A      5.258523  
     850A      5.273965   851A      5.276680   852A      5.316736  
     853A      5.317960   854A      5.320581   855A      5.357623  
     856A      5.360401   857A      5.360634   858A      5.366887  
     859A      5.368822   860A      5.371884   861A      5.377021  
     862A      5.379645   863A      5.398205   864A      5.399455  
     865A      5.402643   866A      5.419817   867A      5.459490  
     868A      5.477286   869A      5.489519   870A      5.495110  
     871A      5.497391   872A      5.505392   873A      5.523610  
     874A      5.528056   875A      5.532269   876A      5.557486  
     877A      5.565115   878A      5.569634   879A      5.571861  
     880A      5.575729   881A      5.593237   882A      5.595650  
     883A      5.597575   884A      5.621736   885A      5.624248  
     886A      5.641558   887A      5.671368   888A      5.674061  
     889A      5.675663   890A      5.726522   891A      5.727990  
     892A      5.762631   893A      5.765397   894A      5.788435  
     895A      5.790048   896A      5.793775   897A      5.798882  
     898A      5.803362   899A      5.809488   900A      5.839235  
     901A      5.844428   902A      5.850903   903A      5.861968  
     904A      5.938337   905A      5.955845   906A      5.965793  
     907A      6.037899   908A      6.041890   909A      6.061652  
     910A      6.075949   911A      6.080355   912A      6.083010  
     913A      6.134545   914A      6.139570   915A      6.188415  
     916A      6.189544   917A      6.204873   918A      6.240651  
     919A      6.262591   920A      6.265959   921A      6.269080  
     922A      6.274524   923A      6.288976   924A      6.293885  
     925A      6.302614   926A      6.303825   927A      6.309816  
     928A      6.317396   929A      6.335519   930A      6.341935  
     931A      6.354301   932A      6.356684   933A      6.358348  
     934A      6.361611   935A      6.569936   936A      6.576093  
     937A      6.590595   938A      6.644519   939A      6.685468  
     940A      6.698063   941A      6.829597   942A      6.841886  
     943A      6.842721   944A      6.845688   945A      6.882632  
     946A      6.890660   947A      6.890879   948A      6.945012  
     949A      7.002093   950A      7.002662   951A      7.082619  
     952A      7.083293   953A      7.162386   954A      7.196579  
     955A     16.985932   956A     17.070195   957A     17.190871  
     958A     18.320106   959A     18.367967   960A     18.832679  
     961A     20.328990   962A     20.406925   963A     20.782095  
     964A     21.483367   965A     21.932064   966A     22.057833  

    Final Occupation by Irrep:
              A 
    DOCC [    45 ]

  @DF-RHF Final Energy:  -465.05040303739082

   => Energetics <=

    Nuclear Repulsion Energy =            714.5204505318334895
    One-Electron Energy =               -2046.3541207733555893
    Two-Electron Energy =                 866.7832672041313344
    Total Energy =                       -465.0504030373908790

Computation Completed

*** tstop() called on node37.bme.utexas.edu at Fri Nov  6 06:43:49 2020
Module time:
	user time   =    1221.86 seconds =      20.36 minutes
	system time =     253.21 seconds =       4.22 minutes
	total time  =        360 seconds =       6.00 minutes
Total time:
	user time   =    1221.86 seconds =      20.36 minutes
	system time =     253.21 seconds =       4.22 minutes
	total time  =        360 seconds =       6.00 minutes
   => Loading Basis Set <=

    Name: (AUG-CC-PVTZ AUX)
    Role: RIFIT
    Keyword: DF_BASIS_MP2
    atoms 1-12  entry C          line   148 file /home/xy3866/psi4conda/share/psi4/basis/aug-cc-pvtz-ri.gbs 
    atoms 13-30 entry H          line    30 file /home/xy3866/psi4conda/share/psi4/basis/aug-cc-pvtz-ri.gbs 


*** tstart() called on node37.bme.utexas.edu
*** at Fri Nov  6 06:43:50 2020


  //>>>>>>>>>>>>>>>>>>>>>>>>>>>>>>>>>>>//
  //               DFMP2               //
  //<<<<<<<<<<<<<<<<<<<<<<<<<<<<<<<<<<<//

	 --------------------------------------------------------
	                          DF-MP2                         
	      2nd-Order Density-Fitted Moller-Plesset Theory     
	              RMP2 Wavefunction,   8 Threads             
	                                                         
	        Rob Parrish, Justin Turney, Andy Simmonett,      
	           Ed Hohenstein, and C. David Sherrill          
	 --------------------------------------------------------

   => Auxiliary Basis Set <=

  Basis Set: (AUG-CC-PVTZ AUX)
    Blend: AUG-CC-PVTZ-RI
    Number of shells: 588
    Number of basis function: 2100
    Number of Cartesian functions: 2622
    Spherical Harmonics?: true
    Max angular momentum: 4

	 --------------------------------------------------------
	                 NBF =   966, NAUX =  2100
	 --------------------------------------------------------
	   CLASS    FOCC     OCC    AOCC    AVIR     VIR    FVIR
	   PAIRS       0      45      45     921     921       0
	 --------------------------------------------------------

  DFHelper Memory: AOs need 13.516 GiB; user supplied 22.352 GiB. Using in-core AOs.


         ------------------------------------------------------------
                                     CPHF                           
                                  Rob Parrish                       
         ------------------------------------------------------------

  ==> Geometry <==

    Molecular point group: c1
    Full point group: C1

    Geometry (in Angstrom), charge = 0, multiplicity = 1:

       Center              X                  Y                   Z               Mass       
    ------------   -----------------  -----------------  -----------------  -----------------
         C           -0.511756936984     1.313730659094    -0.022939844080    12.000000000000
         C           -1.354249036984     0.187272259094     0.025257655920    12.000000000000
         C            0.878471063016     1.098692659094     0.022458155920    12.000000000000
         C           -0.884217936984    -1.094216340906    -0.022891844080    12.000000000000
         C            1.387353063016    -0.212793340906    -0.022987844080    12.000000000000
         C            0.506032063016    -1.309275340906     0.022470155920    12.000000000000
         C           -1.058540936984     2.722530659094    -0.087687844080    12.000000000000
         C           -2.886523936984     0.448111659094     0.087332155920    12.000000000000
         C            1.825300063016     2.276490659094     0.087295155920    12.000000000000
         C           -1.831100936984    -2.271972340906    -0.087693844080    12.000000000000
         C            2.880792063016    -0.443812340906    -0.087628844080    12.000000000000
         C            1.052799063016    -2.718086340906     0.087277155920    12.000000000000
         H           -1.225772936984     3.152999659094     0.908042155920     1.007825032230
         H           -0.376025936984     3.386087659094    -0.622195844080     1.007825032230
         H           -2.009958936984     2.751714659094    -0.622317844080     1.007825032230
         H           -3.119833936984     1.371237659094     0.621420155920     1.007825032230
         H           -3.343055936984     0.518089659094    -0.908375844080     1.007825032230
         H           -3.387454936984    -0.361004340906     0.622378155920     1.007825032230
         H            2.741178063016     2.016849659094     0.621719155920     1.007825032230
         H            1.375185063016     3.115119659094     0.622033155920     1.007825032230
         H            2.114557063016     2.636533659094    -0.908420844080     1.007825032230
         H           -1.380679936984    -3.110813340906    -0.621828844080     1.007825032230
         H           -2.120959936984    -2.631630340906     0.907987155920     1.007825032230
         H           -2.746685936984    -2.012492340906    -0.622718844080     1.007825032230
         H            3.337203063016    -0.513733340906     0.908138155920     1.007825032230
         H            3.114020063016    -1.367017340906    -0.621605844080     1.007825032230
         H            3.381936063016     0.365160659094    -0.622689844080     1.007825032230
         H            0.370052063016    -3.381621340906     0.621519155920     1.007825032230
         H            1.220373063016    -3.148526340906    -0.908405844080     1.007825032230
         H            2.004038063016    -2.747334340906     0.622222155920     1.007825032230

  Nuclear repulsion =  714.520450531833490
  Reference energy  = -465.050403037390822

  ==> Basis Set <==

  Basis Set: AUG-CC-PVTZ
    Blend: AUG-CC-PVTZ
    Number of shells: 330
    Number of basis function: 966
    Number of Cartesian functions: 1110
    Spherical Harmonics?: true
    Max angular momentum: 3

  ==> CGRSolver (by Rob Parrish) <==

   Number of roots    =         1
   Preconditioning    =    JACOBI
   Convergence cutoff =     1E-06
   Maximum iterations =       100

  ==> CPHFRHamiltonian (by Rob Parrish) <== 

  ==> MemDFJK: Density-Fitted J/K Matrices <==

    J tasked:                   Yes
    K tasked:                   Yes
    wK tasked:                   No
    OpenMP threads:               8
    Memory [MiB]:             22888
    Algorithm:                 Disk
    Schwarz Cutoff:           1E-12
    Mask sparsity (%):       8.2649
    Fitting Condition:        1E-10

   => Auxiliary Basis Set <=

  Basis Set: (AUG-CC-PVTZ AUX)
    Blend: AUG-CC-PVTZ-JKFIT
    Number of shells: 612
    Number of basis function: 2076
    Number of Cartesian functions: 2562
    Spherical Harmonics?: true
    Max angular momentum: 4

  ==> CPHF Iterations <==

  => Iterations <=

             Iter  Converged  Remaining    Residual
  CGR           1          0          1   7.299E-02
  CGR           2          0          1   1.208E-02
  CGR           3          0          1   4.292E-03
  CGR           4          0          1   2.004E-03
  CGR           5          0          1   9.561E-04
  CGR           6          0          1   3.395E-04
  CGR           7          0          1   1.061E-04
  CGR           8          0          1   2.374E-05
  CGR           9          0          1   1.167E-05
  CGR          10          0          1   6.068E-06
  CGR          11          0          1   2.058E-06
  CGR          12          1          0   6.908E-07

    CGRSolver converged.

	-----------------------------------------------------------
	 ==================> DF-MP2 Energies <==================== 
	-----------------------------------------------------------
	 Reference Energy          =    -465.0504030373908222 [Eh]
	 Singles Energy            =      -0.0000000000000000 [Eh]
	 Same-Spin Energy          =      -0.5261251949464260 [Eh]
	 Opposite-Spin Energy      =      -1.7661361729116027 [Eh]
	 Correlation Energy        =      -2.2922613678580288 [Eh]
	 Total Energy              =    -467.3426644052488541 [Eh]
	-----------------------------------------------------------
	 ================> DF-SCS-MP2 Energies <================== 
	-----------------------------------------------------------
	 SCS Same-Spin Scale       =       0.3333333333333333 [-]
	 SCS Opposite-Spin Scale   =       1.2000000000000000 [-]
	 SCS Same-Spin Energy      =      -0.1753750649821420 [Eh]
	 SCS Opposite-Spin Energy  =      -2.1193634074939234 [Eh]
	 SCS Correlation Energy    =      -2.2947384724760655 [Eh]
	 SCS Total Energy          =    -467.3451415098668917 [Eh]
	-----------------------------------------------------------



Properties will be evaluated at   0.000000,  -0.000000,  -0.000000 [a0]

Properties computed using the MP2 density matrix

  Nuclear Dipole Moment: [e a0]
     X:    -0.0486      Y:     0.0371      Z:    -0.0029

  Electronic Dipole Moment: [e a0]
     X:     0.0667      Y:    -0.0341      Z:    -0.0003

  Dipole Moment: [e a0]
     X:     0.0181      Y:     0.0031      Z:    -0.0032     Total:     0.0186

  Dipole Moment: [D]
     X:     0.0459      Y:     0.0078      Z:    -0.0082     Total:     0.0473


*** tstop() called on node37.bme.utexas.edu at Fri Nov  6 06:57:51 2020
Module time:
	user time   =    4287.16 seconds =      71.45 minutes
	system time =     508.67 seconds =       8.48 minutes
	total time  =        841 seconds =      14.02 minutes
Total time:
	user time   =    5509.84 seconds =      91.83 minutes
	system time =     761.92 seconds =      12.70 minutes
	total time  =       1202 seconds =      20.03 minutes

    Psi4 stopped on: Friday, 06 November 2020 06:57AM
    Psi4 wall time for execution: 0:20:03.36

*** Psi4 exiting successfully. Buy a developer a beer!
