opt=Tight                                                               
Freq      RMP2-FC                                                     6-31G(d)            
Number of atoms                            I                4
Info1-9                                    I   N=           9
          13          13        1002           0           0         100
           6           2           1
Charge                                     I               -1
Multiplicity                               I                1
Number of electrons                        I               24
Number of alpha electrons                  I               12
Number of beta electrons                   I               12
Number of basis functions                  I               47
Number of independent functions            I               47
Number of point charges in /Mol/           I                0
Number of translation vectors              I                0
Atomic numbers                             I   N=           4
           8           8           6           1
Nuclear charges                            R   N=           4
  8.00000000E+00  8.00000000E+00  6.00000000E+00  1.00000000E+00
Current cartesian coordinates              R   N=          12
  2.11758237E-22 -4.03551559E-01  2.15608462E+00 -1.58818678E-22 -4.03551559E-01
 -2.15608462E+00  1.05879118E-22  6.18128806E-01 -4.93038066E-32  7.99265152E-08
  2.74805211E+00 -3.94430453E-31
Force Field                                I                0
Int Atom Types                             I   N=           4
           0           0           0           0
MM charges                                 R   N=           4
  0.00000000E+00  0.00000000E+00  0.00000000E+00  0.00000000E+00
Integer atomic weights                     I   N=           4
          16          16          12           1
Real atomic weights                        R   N=           4
  1.59949146E+01  1.59949146E+01  1.20000000E+01  1.00782504E+00
Atom fragment info                         I   N=           4
           0           0           0           0
Atom residue num                           I   N=           4
           0           0           0           0
Nuclear spins                              I   N=           4
           0           0           0           1
Nuclear ZEff                               R   N=           4
 -5.60000000E+00 -5.60000000E+00 -3.60000000E+00 -1.00000000E+00
Nuclear QMom                               R   N=           4
  0.00000000E+00  0.00000000E+00  0.00000000E+00  0.00000000E+00
Nuclear GFac                               R   N=           4
  0.00000000E+00  0.00000000E+00  0.00000000E+00  2.79284600E+00
MicOpt                                     I   N=           4
          -1          -1          -1          -1
Number of contracted shells                I               14
Number of primitive shells                 I               37
Pure/Cartesian d shells                    I                1
Pure/Cartesian f shells                    I                0
Highest angular momentum                   I                2
Largest degree of contraction              I                6
Shell types                                I   N=          14
           0          -1          -1           2           0          -1
          -1           2           0          -1          -1           2
           0           0
Number of primitives per shell             I   N=          14
           6           3           1           1           6           3
           1           1           6           3           1           1
           3           1
Shell to atom map                          I   N=          14
           1           1           1           1           2           2
           2           2           3           3           3           3
           4           4
Primitive exponents                        R   N=          37
  5.48467166E+03  8.25234946E+02  1.88046958E+02  5.29645000E+01  1.68975704E+01
  5.79963534E+00  1.55396162E+01  3.59993359E+00  1.01376175E+00  2.70005823E-01
  8.00000000E-01  5.48467166E+03  8.25234946E+02  1.88046958E+02  5.29645000E+01
  1.68975704E+01  5.79963534E+00  1.55396162E+01  3.59993359E+00  1.01376175E+00
  2.70005823E-01  8.00000000E-01  3.04752488E+03  4.57369518E+02  1.03948685E+02
  2.92101553E+01  9.28666296E+00  3.16392696E+00  7.86827235E+00  1.88128854E+00
  5.44249258E-01  1.68714478E-01  8.00000000E-01  1.87311370E+01  2.82539436E+00
  6.40121692E-01  1.61277759E-01
Contraction coefficients                   R   N=          37
  1.83107443E-03  1.39501722E-02  6.84450781E-02  2.32714336E-01  4.70192898E-01
  3.58520853E-01 -1.10777550E-01 -1.48026263E-01  1.13076702E+00  1.00000000E+00
  1.00000000E+00  1.83107443E-03  1.39501722E-02  6.84450781E-02  2.32714336E-01
  4.70192898E-01  3.58520853E-01 -1.10777550E-01 -1.48026263E-01  1.13076702E+00
  1.00000000E+00  1.00000000E+00  1.83473713E-03  1.40373228E-02  6.88426223E-02
  2.32184443E-01  4.67941348E-01  3.62311985E-01 -1.19332420E-01 -1.60854152E-01
  1.14345644E+00  1.00000000E+00  1.00000000E+00  3.34946043E-02  2.34726953E-01
  8.13757326E-01  1.00000000E+00
P(S=P) Contraction coefficients            R   N=          37
  0.00000000E+00  0.00000000E+00  0.00000000E+00  0.00000000E+00  0.00000000E+00
  0.00000000E+00  7.08742682E-02  3.39752839E-01  7.27158577E-01  1.00000000E+00
  0.00000000E+00  0.00000000E+00  0.00000000E+00  0.00000000E+00  0.00000000E+00
  0.00000000E+00  0.00000000E+00  7.08742682E-02  3.39752839E-01  7.27158577E-01
  1.00000000E+00  0.00000000E+00  0.00000000E+00  0.00000000E+00  0.00000000E+00
  0.00000000E+00  0.00000000E+00  0.00000000E+00  6.89990666E-02  3.16423961E-01
  7.44308291E-01  1.00000000E+00  0.00000000E+00  0.00000000E+00  0.00000000E+00
  0.00000000E+00  0.00000000E+00
Coordinates of each shell                  R   N=          42
  1.58818678E-22 -4.03551559E-01  2.15608462E+00  1.58818678E-22 -4.03551559E-01
  2.15608462E+00  1.58818678E-22 -4.03551559E-01  2.15608462E+00  1.58818678E-22
 -4.03551559E-01  2.15608462E+00  0.00000000E+00 -4.03551559E-01 -2.15608462E+00
  0.00000000E+00 -4.03551559E-01 -2.15608462E+00  0.00000000E+00 -4.03551559E-01
 -2.15608462E+00  0.00000000E+00 -4.03551559E-01 -2.15608462E+00  1.05879118E-22
  6.18128806E-01 -4.93038066E-32  1.05879118E-22  6.18128806E-01 -4.93038066E-32
  1.05879118E-22  6.18128806E-01 -4.93038066E-32  1.05879118E-22  6.18128806E-01
 -4.93038066E-32  7.99265152E-08  2.74805211E+00 -3.94430453E-31  7.99265152E-08
  2.74805211E+00 -3.94430453E-31
Constraint Structure                       R   N=          12
  1.58818678E-22 -4.03551559E-01  2.15608462E+00  0.00000000E+00 -4.03551559E-01
 -2.15608462E+00  1.05879118E-22  6.18128806E-01 -4.93038066E-32  7.99265152E-08
  2.74805211E+00 -3.94430453E-31
Num ILSW                                   I              100
ILSW                                       I   N=         100
           0           1           0           0           2           0
           0           0           0           0           0          -1
           0           0           0           0           0           0
           0           0           0           0           1           0
           1           0           0           0           0           0
           0           0      100000           0          -1           0
           0           0           0           0           0           0
           0           0           0           1           1           0
           0           0           1           0           0           0
           0           0           4          40           0           0
           0           0           0           0           0           0
           0           0           0           0           0           0
           0           0           0           0           0           0
           0           0           0           0           0           0
           0           0           0           0           0           0
           0           0           0           0           0           0
           0           0           0           0
Num RLSW                                   I               40
RLSW                                       R   N=          40
  1.00000000E+00  1.00000000E+00  1.00000000E+00  1.00000000E+00  1.00000000E+00
  0.00000000E+00  0.00000000E+00  1.00000000E+00  0.00000000E+00  0.00000000E+00
  0.00000000E+00  0.00000000E+00  1.00000000E+00  0.00000000E+00  0.00000000E+00
  0.00000000E+00  0.00000000E+00  1.00000000E+00  0.00000000E+00  0.00000000E+00
  0.00000000E+00  0.00000000E+00  1.00000000E+00  0.00000000E+00  0.00000000E+00
  0.00000000E+00  0.00000000E+00  1.00000000E+00  0.00000000E+00  0.00000000E+00
  0.00000000E+00  0.00000000E+00  0.00000000E+00  0.00000000E+00  0.00000000E+00
  0.00000000E+00  0.00000000E+00  0.00000000E+00  1.00000000E+00  1.00000000E+00
MxBond                                     I                3
NBond                                      I   N=           4
           1           1           3           1
IBond                                      I   N=          12
           3           0           0           3           0           0
           1           2           4           3           0           0
RBond                                      R   N=          12
  2.00000000E+00  0.00000000E+00  0.00000000E+00  2.00000000E+00  0.00000000E+00
  0.00000000E+00  2.00000000E+00  2.00000000E+00  1.00000000E+00  1.00000000E+00
  0.00000000E+00  0.00000000E+00
Virial Ratio                               R      2.003241850647811E+00
SCF Energy                                 R     -1.882879893521549E+02
MP2 Energy                                 R     -1.887735859227965E+02
Total Energy                               R     -1.887735859227965E+02
Post-SCF wavefunction norm                 R      1.511873323979111E+00
RMS Force                                  R      2.251970512645833E-08
RMS Density                                R      1.460326007861646E-09
External E-field                           R   N=          35
  0.00000000E+00  0.00000000E+00  0.00000000E+00  0.00000000E+00  0.00000000E+00
  0.00000000E+00  0.00000000E+00  0.00000000E+00  0.00000000E+00  0.00000000E+00
  0.00000000E+00  0.00000000E+00  0.00000000E+00  0.00000000E+00  0.00000000E+00
  0.00000000E+00  0.00000000E+00  0.00000000E+00  0.00000000E+00  0.00000000E+00
  0.00000000E+00  0.00000000E+00  0.00000000E+00  0.00000000E+00  0.00000000E+00
  0.00000000E+00  0.00000000E+00  0.00000000E+00  0.00000000E+00  0.00000000E+00
  0.00000000E+00  0.00000000E+00  0.00000000E+00  0.00000000E+00  0.00000000E+00
IOpCl                                      I                0
IROHF                                      I                0
Alpha Orbital Energies                     R   N=          47
 -2.04678952E+01 -2.04678630E+01 -1.13073665E+01 -1.32810591E+00 -1.23172801E+00
 -7.33282707E-01 -6.04340100E-01 -5.61984821E-01 -5.16838435E-01 -3.84411258E-01
 -3.67230015E-01 -3.63009226E-01  2.64693819E-01  3.29278074E-01  5.04507966E-01
  5.12190686E-01  7.88266682E-01  9.00193394E-01  9.66261389E-01  9.89958179E-01
  1.12955468E+00  1.15491255E+00  1.17643111E+00  1.29969884E+00  1.36875185E+00
  1.37410303E+00  1.38772364E+00  1.70052515E+00  1.77148070E+00  1.78320664E+00
  1.81990535E+00  2.06739330E+00  2.12356177E+00  2.18302336E+00  2.25243006E+00
  2.27158494E+00  2.30909929E+00  2.57300867E+00  2.75233412E+00  2.98593489E+00
  3.09423219E+00  3.24328702E+00  3.29591792E+00  3.44388074E+00  4.23100024E+00
  4.25476147E+00  4.65337779E+00
Alpha MO coefficients                      R   N=        2209
  7.03352819E-01  1.48528517E-02 -2.56387499E-11  3.55498764E-04 -8.29882365E-04
  2.93426886E-03  1.23362985E-11 -8.23923404E-05  1.38310935E-04 -2.82471370E-03
 -2.77294479E-03 -2.65610989E-03  3.87905547E-11 -4.70340520E-12  2.45090872E-05
 -7.03352819E-01 -1.48528517E-02  2.56387499E-11 -3.55498764E-04 -8.29882365E-04
 -2.93426886E-03 -1.23362985E-11  8.23923404E-05  1.38310935E-04  2.82471370E-03
  2.77294479E-03  2.65610989E-03 -3.87905547E-11 -4.70340520E-12  2.45090872E-05
  0.00000000E+00  0.00000000E+00  0.00000000E+00  0.00000000E+00  1.85501832E-04
  0.00000000E+00  0.00000000E+00  0.00000000E+00 -3.69535905E-04  0.00000000E+00
  0.00000000E+00  0.00000000E+00  0.00000000E+00 -1.43899719E-11  2.98311749E-04
  0.00000000E+00  0.00000000E+00  7.03349942E-01  1.48302318E-02 -2.73377342E-11
  4.03061803E-04 -8.17693915E-04  3.09601398E-03  1.58607905E-11  1.13999439E-05
  1.83074677E-05 -2.88832602E-03 -2.68388628E-03 -2.71451350E-03  3.93533557E-11
 -2.92621933E-12 -1.20304299E-04  7.03349942E-01  1.48302318E-02 -2.73377342E-11
  4.03061803E-04  8.17693915E-04  3.09601398E-03  1.58607905E-11  1.13999439E-05
 -1.83074677E-05 -2.88832602E-03 -2.68388628E-03 -2.71451350E-03  3.93533557E-11
  2.92621933E-12  1.20304299E-04 -3.79813892E-06  7.43140762E-04 -1.43007605E-11
 -5.67691237E-05  0.00000000E+00 -5.84049182E-04 -1.14123887E-11  2.81022709E-04
  0.00000000E+00 -6.09787139E-05 -1.89929145E-04 -7.63482123E-04 -5.71062783E-12
  0.00000000E+00  0.00000000E+00 -3.81732344E-05 -1.16363199E-04 -2.39539344E-04
  3.93245246E-04 -2.44103053E-12  1.00205049E-05 -1.83998564E-04 -1.45098797E-03
  1.06834511E-11 -2.65965327E-04  1.49155055E-03  2.63235638E-04  6.73454331E-06
 -2.69274273E-04 -2.04160689E-11  4.93611508E-13  2.21151478E-04 -2.39539344E-04
  3.93245246E-04 -2.44103053E-12  1.00205049E-05  1.83998564E-04 -1.45098797E-03
  1.06834511E-11 -2.65965327E-04 -1.49155055E-03  2.63235638E-04  6.73454331E-06
 -2.69274273E-04 -2.04160689E-11 -4.93611508E-13 -2.21151478E-04  9.95850806E-01
  2.55606401E-02  4.64305698E-11 -4.49066237E-04  0.00000000E+00 -4.53504956E-03
 -7.15179553E-11 -2.32301936E-03  0.00000000E+00 -2.44365482E-03 -1.56991333E-03
 -4.19004414E-04  4.00097258E-11  0.00000000E+00  0.00000000E+00 -1.46720885E-04
  2.50989279E-03 -1.33411721E-01  2.92419859E-01  1.24123123E-09  3.48226505E-02
 -8.73239290E-02  2.75132604E-01  4.10208022E-10  1.00649341E-02 -3.68781691E-02
 -3.60682153E-04 -4.99237253E-04  1.26894424E-02 -9.28823799E-11 -2.77499988E-11
 -6.09234281E-03 -1.33411721E-01  2.92419859E-01  1.24123123E-09  3.48226505E-02
  8.73239290E-02  2.75132604E-01  4.10208022E-10  1.00649341E-02  3.68781691E-02
 -3.60682153E-04 -4.99237253E-04  1.26894424E-02 -9.28823799E-11  2.77499988E-11
  6.09234281E-03 -1.30827699E-01  2.51051452E-01 -2.44207141E-09 -8.65818069E-02
  0.00000000E+00  7.68711410E-02 -4.69686344E-10  2.35651584E-02  0.00000000E+00
 -2.08848032E-02 -8.52735698E-03  2.83209937E-02 -2.37465375E-10  0.00000000E+00
  0.00000000E+00  3.49463091E-02 -1.02905365E-02 -1.51514172E-01  3.30315443E-01
  1.77078424E-09  4.19091588E-02 -6.09237905E-02  3.31400256E-01  3.36245095E-10
  1.68181770E-02 -1.95723069E-02 -1.51294655E-03  2.10255420E-03  5.12490804E-03
  2.38910764E-11 -7.49629705E-11 -6.11070872E-03  1.51514172E-01 -3.30315443E-01
 -1.77078424E-09 -4.19091588E-02 -6.09237905E-02 -3.31400256E-01 -3.36245095E-10
 -1.68181770E-02 -1.95723069E-02  1.51294655E-03 -2.10255420E-03 -5.12490804E-03
 -2.38910764E-11 -7.49629705E-11 -6.11070872E-03  0.00000000E+00  0.00000000E+00
  0.00000000E+00  0.00000000E+00  2.48030315E-01  0.00000000E+00  0.00000000E+00
  0.00000000E+00  1.84001939E-03  0.00000000E+00  0.00000000E+00  0.00000000E+00
  0.00000000E+00 -9.01209379E-10 -3.33466171E-02  0.00000000E+00  0.00000000E+00
  7.18311089E-02 -1.55850625E-01  8.57665490E-09  1.47152338E-01 -1.12749458E-01
 -2.49259779E-01  3.52527626E-09  7.72479990E-02 -7.14924610E-02 -1.47600083E-05
  5.09110176E-03  7.70299627E-03 -5.77494835E-10 -5.14108595E-12 -1.12212686E-02
  7.18311089E-02 -1.55850625E-01  8.57665490E-09  1.47152338E-01  1.12749458E-01
 -2.49259779E-01  3.52527626E-09  7.72479990E-02  7.14924610E-02 -1.47600083E-05
  5.09110176E-03  7.70299627E-03 -5.77494835E-10  5.14108595E-12  1.12212686E-02
 -1.35382056E-01  2.93827458E-01  9.15891202E-09  2.14609254E-01  0.00000000E+00
  2.34834718E-01  4.08932504E-09  1.06150717E-01  0.00000000E+00 -1.09487945E-02
  1.87630039E-02 -6.57938762E-03  2.14793217E-09  0.00000000E+00  0.00000000E+00
  2.19890639E-01  1.14371787E-01 -4.87662743E-02  1.02428435E-01  1.15909869E-08
  7.82926723E-02  3.16914312E-01  2.00050886E-01  6.73221107E-09  5.65473224E-02
  2.09306657E-01  1.07324353E-03  7.61907407E-03 -2.65505661E-02  4.29732024E-10
 -4.65169359E-10  2.18917463E-03 -4.87662743E-02  1.02428435E-01  1.15909869E-08
  7.82926723E-02 -3.16914312E-01  2.00050886E-01  6.73221107E-09  5.65473224E-02
 -2.09306657E-01  1.07324353E-03  7.61907407E-03 -2.65505661E-02  4.29732024E-10
  4.65169359E-10 -2.18917463E-03  5.00302755E-02 -1.25874839E-01  1.35231409E-08
  3.27341490E-01  0.00000000E+00 -1.94224056E-02  4.43871959E-09  7.66059442E-02
  0.00000000E+00  6.00688850E-03  1.04397283E-02 -6.58253588E-04  1.02413260E-09
  0.00000000E+00  0.00000000E+00  1.26254886E-01  1.25837197E-01  5.35264885E-02
 -1.09040906E-01  1.77303285E-08  2.43500513E-01 -2.80431722E-01 -2.52350604E-01
  1.07632457E-08  1.62182318E-01 -1.75231129E-01 -1.08698408E-03  8.46234931E-03
  1.69325552E-02 -3.37663840E-10 -9.87533514E-11 -1.70527106E-02 -5.35264885E-02
  1.09040906E-01 -1.77303285E-08 -2.43500513E-01 -2.80431722E-01  2.52350604E-01
 -1.07632457E-08 -1.62182318E-01 -1.75231129E-01  1.08698408E-03 -8.46234931E-03
 -1.69325552E-02  3.37663840E-10 -9.87533514E-11 -1.70527106E-02  0.00000000E+00
  0.00000000E+00  0.00000000E+00  0.00000000E+00  3.62977639E-01  0.00000000E+00
  0.00000000E+00  0.00000000E+00  5.06581688E-02  0.00000000E+00  0.00000000E+00
  0.00000000E+00  0.00000000E+00  4.67902053E-11 -1.52528425E-02  0.00000000E+00
  0.00000000E+00 -3.35851473E-10  2.14041469E-09  3.42541576E-01  2.88756647E-09
 -8.93811215E-09 -1.21252169E-09  2.46086740E-01 -2.15186233E-10 -5.87945029E-09
  3.18108225E-10 -6.68395078E-10  1.30626899E-09  1.09952218E-02 -2.27857692E-02
  7.82317063E-10 -3.35851473E-10  2.14041469E-09  3.42541576E-01  2.88756647E-09
  8.93811215E-09 -1.21252169E-09  2.46086740E-01 -2.15186233E-10  5.87945029E-09
  3.18108225E-10 -6.68395078E-10  1.30626899E-09  1.09952218E-02  2.27857692E-02
 -7.82317063E-10  3.07652861E-09 -6.07832315E-09  3.10538535E-01 -1.98144298E-08
  0.00000000E+00 -1.56177424E-08  1.90135044E-01 -1.31109786E-08  0.00000000E+00
 -3.22488041E-10  2.06422870E-10 -4.06503619E-11 -1.61024423E-02  0.00000000E+00
  0.00000000E+00 -6.11640639E-09 -2.22300331E-09  3.04087246E-03  4.81156814E-03
  1.95057735E-07  3.44633476E-01  2.97046538E-01 -7.77067885E-02  1.65061032E-07
  2.64363544E-01  2.55612547E-01  4.47880463E-03  1.67366293E-02 -1.27714844E-02
  4.46172458E-09 -8.03400659E-09 -5.95118733E-03 -3.04087246E-03 -4.81156814E-03
 -1.95057735E-07 -3.44633476E-01  2.97046538E-01  7.77067885E-02 -1.65061032E-07
 -2.64363544E-01  2.55612547E-01 -4.47880463E-03 -1.67366293E-02  1.27714844E-02
 -4.46172458E-09 -8.03400659E-09 -5.95118733E-03  0.00000000E+00  0.00000000E+00
  0.00000000E+00  0.00000000E+00 -6.17927266E-02  0.00000000E+00  0.00000000E+00
  0.00000000E+00  1.30424597E-01  0.00000000E+00  0.00000000E+00  0.00000000E+00
  0.00000000E+00  2.05813187E-08  4.07320971E-02  0.00000000E+00  0.00000000E+00
 -5.30497223E-03  3.28950786E-03  2.10505790E-08  3.95768576E-01  1.35830136E-02
  7.39723348E-02  1.94447632E-08  3.38492659E-01 -1.16666317E-02 -4.93662901E-03
  2.07308784E-03 -5.55685490E-04 -7.53049779E-10  1.01221210E-09 -1.31221105E-02
 -5.30497223E-03  3.28950786E-03  2.10505790E-08  3.95768576E-01 -1.35830136E-02
  7.39723348E-02  1.94447632E-08  3.38492659E-01  1.16666317E-02 -4.93662901E-03
  2.07308784E-03 -5.55685490E-04 -7.53049779E-10 -1.01221210E-09  1.31221105E-02
  3.43965544E-03  5.76464092E-03 -4.26623869E-08 -1.72786043E-01  0.00000000E+00
 -1.48858188E-01 -3.70801051E-08  4.49693383E-02  0.00000000E+00 -2.28089366E-03
 -5.79176187E-02  4.65884802E-02 -2.78915526E-09  0.00000000E+00  0.00000000E+00
 -2.13196502E-01 -3.18820421E-01 -3.80390535E-09  1.85514003E-09  4.31654727E-01
 -1.54578046E-07 -1.23031511E-07  5.86828385E-08  3.82797548E-01 -1.21157681E-07
 -1.11916789E-07 -2.30798154E-09 -8.69565667E-09  4.65984442E-09  1.13015592E-02
 -2.03807210E-02  3.76306551E-09  3.80390535E-09 -1.85514003E-09 -4.31654727E-01
  1.54578046E-07 -1.23031511E-07 -5.86828385E-08 -3.82797548E-01  1.21157681E-07
 -1.11916789E-07  2.30798154E-09  8.69565667E-09 -4.65984442E-09 -1.13015592E-02
 -2.03807210E-02  3.76306551E-09  0.00000000E+00  0.00000000E+00  0.00000000E+00
  0.00000000E+00  7.77706460E-09  0.00000000E+00  0.00000000E+00  0.00000000E+00
 -8.09867608E-08  0.00000000E+00  0.00000000E+00  0.00000000E+00  0.00000000E+00
  5.02281457E-02 -1.85387043E-08  0.00000000E+00  0.00000000E+00 -1.51904763E-09
  3.10782805E-09 -2.88390752E-01  2.52111696E-08 -9.14588116E-10  1.35171861E-08
 -4.45218801E-01  3.42866322E-08 -6.02637014E-09 -4.25479285E-10 -1.47897614E-10
  1.28556497E-09  5.69293713E-03 -5.94338123E-03 -5.97023594E-10 -1.51904763E-09
  3.10782805E-09 -2.88390752E-01  2.52111696E-08  9.14588116E-10  1.35171861E-08
 -4.45218801E-01  3.42866322E-08  6.02637014E-09 -4.25479285E-10 -1.47897614E-10
  1.28556497E-09  5.69293713E-03  5.94338123E-03  5.97023594E-10  1.60521167E-09
  1.98516539E-09  4.49418440E-01 -1.57293731E-08  0.00000000E+00 -4.04422879E-08
  7.95770335E-01 -5.70239042E-09  0.00000000E+00  2.71694376E-10 -1.80539749E-09
  1.65748065E-09  2.53899183E-02  0.00000000E+00  0.00000000E+00 -3.06028780E-09
 -2.61336133E-08 -1.55333715E-02  2.44144904E-02  1.59721090E-09  8.74120112E-02
 -5.86568700E-02  1.88021033E-01  6.73173717E-09  2.62728635E-01 -8.82102693E-02
 -8.32018813E-03 -5.27958299E-04  3.76900677E-03  3.75388813E-10  4.29678740E-10
 -6.04268546E-04 -1.55333715E-02  2.44144904E-02  1.59721090E-09  8.74120112E-02
  5.86568700E-02  1.88021033E-01  6.73173717E-09  2.62728635E-01  8.82102693E-02
 -8.32018813E-03 -5.27958299E-04  3.76900677E-03  3.75388813E-10 -4.29678740E-10
  6.04268546E-04  1.07140022E-01 -1.01977318E-01 -1.37255900E-08 -3.25334268E-01
  0.00000000E+00 -1.90325325E+00 -4.50092683E-08 -9.69443690E-01  0.00000000E+00
  2.53287318E-03 -1.70192751E-03  1.11780683E-02  6.24471908E-11  0.00000000E+00
  0.00000000E+00 -5.69632485E-03  2.15679064E+00  7.81046838E-02 -1.58938580E-02
  2.33514094E-09 -1.39551646E-01 -1.58617929E-02 -1.85256687E+00  6.91560501E-09
 -5.90765498E-01  5.10084484E-01  4.89985993E-02  4.27410853E-02  1.18487175E-02
 -2.34729414E-10 -4.35946111E-10  3.03086817E-02 -7.81046838E-02  1.58938580E-02
 -2.33514094E-09  1.39551646E-01 -1.58617929E-02  1.85256687E+00 -6.91560501E-09
  5.90765498E-01  5.10084484E-01 -4.89985993E-02 -4.27410853E-02 -1.18487175E-02
  2.34729414E-10 -4.35946111E-10  3.03086817E-02  0.00000000E+00  0.00000000E+00
  0.00000000E+00  0.00000000E+00  1.19521531E-01  0.00000000E+00  0.00000000E+00
  0.00000000E+00  2.77751752E+00  0.00000000E+00  0.00000000E+00  0.00000000E+00
  0.00000000E+00  1.03114455E-09 -1.71476735E-02  0.00000000E+00  0.00000000E+00
  8.47441088E-02 -1.10675301E-01 -1.60510133E-09  5.76783701E-02  1.51303014E-01
 -1.46555848E+00 -2.47983088E-09 -3.52558382E-03  9.23598867E-01  4.46886208E-02
  1.36169498E-02 -3.81072336E-02 -5.41591001E-10  4.86986958E-11  2.92769617E-02
  8.47441088E-02 -1.10675301E-01 -1.60510133E-09  5.76783701E-02 -1.51303014E-01
 -1.46555848E+00 -2.47983088E-09 -3.52558382E-03 -9.23598867E-01  4.46886208E-02
  1.36169498E-02 -3.81072336E-02 -5.41591001E-10 -4.86986958E-11 -2.92769617E-02
 -7.40539395E-02 -1.90778850E-01 -9.92210785E-10 -2.13678682E-01  0.00000000E+00
  2.64950677E+00  1.31977296E-09 -1.69814853E+00  0.00000000E+00  4.19376781E-03
 -3.50970337E-02  2.93072014E-02 -4.72695866E-10  0.00000000E+00  0.00000000E+00
 -1.56511993E-01  5.66644338E-01  2.76116669E-10  2.24953376E-09 -5.35318062E-02
 -1.94291127E-09  2.58407813E-09 -3.49000586E-09 -1.40486240E-01 -5.13616938E-10
  2.71062727E-09  5.28045551E-10  2.12886919E-09 -4.98104738E-11 -2.80288738E-02
  6.79820491E-02 -2.06072505E-09  2.76116669E-10  2.24953376E-09 -5.35318062E-02
 -1.94291127E-09 -2.58407813E-09 -3.49000586E-09 -1.40486240E-01 -5.13616938E-10
 -2.71062727E-09  5.28045551E-10  2.12886919E-09 -4.98104738E-11 -2.80288738E-02
 -6.79820491E-02  2.06072505E-09 -7.32829489E-10  3.39016891E-08 -1.04909906E+00
  2.30116720E-08  0.00000000E+00 -3.76126203E-08  1.22380380E+00 -2.76216921E-08
  0.00000000E+00  3.53165368E-09  1.46822712E-09  3.92512982E-09  2.30154166E-02
  0.00000000E+00  0.00000000E+00  4.26688206E-09  2.12835291E-09  2.19399447E-02
 -9.65134937E-02 -2.71389925E-09 -1.60528985E-01  2.18162796E-01  3.52565601E-01
  2.32198980E-09 -1.05039459E-01  2.28649824E-03 -4.64680447E-02 -6.12555125E-02
  1.38655606E-01 -5.40445400E-10 -2.37620909E-10 -4.03788847E-02  2.19399447E-02
 -9.65134937E-02 -2.71389925E-09 -1.60528985E-01 -2.18162796E-01  3.52565601E-01
  2.32198980E-09 -1.05039459E-01 -2.28649824E-03 -4.64680447E-02 -6.12555125E-02
  1.38655606E-01 -5.40445400E-10  2.37620909E-10  4.03788847E-02 -7.66333568E-02
  8.00132537E-01 -3.79293606E-09 -8.33769126E-01  0.00000000E+00 -5.51717813E-01
  1.48619400E-08  1.25249122E+00  0.00000000E+00  1.11566225E-01  6.46702590E-02
 -1.49414542E-01 -7.13215749E-10  0.00000000E+00  0.00000000E+00  3.59432057E-03
 -5.11709438E-01  3.48350985E-02 -2.06979926E-01 -2.11084568E-09 -5.89794620E-02
  1.61129487E-01  2.69589106E-01  6.53874409E-09 -1.86877128E-01  3.34963305E-01
 -8.83881499E-02 -1.95231596E-02  2.93699305E-02  3.18493418E-11  2.51794018E-10
 -1.04528329E-01 -3.48350985E-02  2.06979926E-01  2.11084568E-09  5.89794620E-02
  1.61129487E-01 -2.69589106E-01 -6.53874409E-09  1.86877128E-01  3.34963305E-01
  8.83881499E-02  1.95231596E-02 -2.93699305E-02 -3.18493418E-11  2.51794018E-10
 -1.04528329E-01  0.00000000E+00  0.00000000E+00  0.00000000E+00  0.00000000E+00
  1.09791641E+00  0.00000000E+00  0.00000000E+00  0.00000000E+00 -7.40815857E-01
  0.00000000E+00  0.00000000E+00  0.00000000E+00  0.00000000E+00 -6.05493569E-10
  1.30657166E-01  0.00000000E+00  0.00000000E+00 -7.63140709E-03  1.29827438E-03
 -1.82581509E-08 -2.29698634E-01 -1.78021651E-01  4.49627551E-02  1.40516256E-09
 -1.03728486E-01 -9.50624068E-02  3.26017966E-02 -1.27093431E-03 -3.16362576E-02
 -2.37919715E-09 -1.63055547E-09 -1.83293598E-03 -7.63140709E-03  1.29827438E-03
 -1.82581509E-08 -2.29698634E-01  1.78021651E-01  4.49627551E-02  1.40516256E-09
 -1.03728486E-01  9.50624068E-02  3.26017966E-02 -1.27093431E-03 -3.16362576E-02
 -2.37919715E-09  1.63055547E-09  1.83293598E-03 -2.24928914E-02 -9.99685078E-01
 -1.99112233E-08 -3.32351368E-01  0.00000000E+00  1.93514551E+00  6.84848823E-08
  1.66790966E+00  0.00000000E+00 -4.67703873E-03 -1.83073566E-01 -6.16965940E-02
 -1.04047268E-08  0.00000000E+00  0.00000000E+00 -6.38291762E-01 -1.00321051E+00
 -3.73536857E-03  1.14370822E-01  4.69178540E-09  1.13616508E-01  4.00986175E-02
 -3.43001497E-01 -7.91389238E-09 -8.66915254E-02 -5.89844636E-02  5.45538922E-02
 -1.44035605E-02  6.37518292E-02 -1.47469394E-09  3.30218509E-09  7.24866851E-02
 -3.73536857E-03  1.14370822E-01  4.69178540E-09  1.13616508E-01 -4.00986175E-02
 -3.43001497E-01 -7.91389238E-09 -8.66915254E-02  5.89844636E-02  5.45538922E-02
 -1.44035605E-02  6.37518292E-02 -1.47469394E-09 -3.30218509E-09 -7.24866851E-02
  3.14630402E-02 -1.04033159E+00 -2.70779170E-08 -5.58521635E-01  0.00000000E+00
  2.05472153E+00  4.26419947E-08  8.59319218E-01  0.00000000E+00 -1.38047084E-01
  9.35896813E-02 -1.07786156E-01  1.17182515E-08  0.00000000E+00  0.00000000E+00
  9.15141034E-01 -1.77377700E+00 -8.42845712E-03 -3.41164762E-01  2.50585896E-09
  1.34390936E-01 -5.17940149E-01  5.20644067E-01 -5.30090670E-09 -3.35794751E-01
  7.44848442E-01 -1.48878557E-01 -1.50345242E-01 -2.11901257E-01  6.93786424E-11
  4.69191531E-10  3.60444820E-02 -8.42845712E-03 -3.41164762E-01  2.50585896E-09
  1.34390936E-01  5.17940149E-01  5.20644067E-01 -5.30090670E-09 -3.35794751E-01
 -7.44848442E-01 -1.48878557E-01 -1.50345242E-01 -2.11901257E-01  6.93786424E-11
 -4.69191531E-10 -3.60444820E-02  7.70783271E-02  2.51605074E-01 -3.02547889E-09
 -2.53007357E-01  0.00000000E+00  3.48543937E-01  1.05406364E-08  2.62893775E-01
  0.00000000E+00 -1.19071989E-01  7.36340567E-02  3.19591482E-01  2.82004901E-09
  0.00000000E+00  0.00000000E+00  1.94228117E-01 -3.64045190E-01 -2.25882580E-02
 -4.85559219E-01  1.29530106E-08  3.40524276E-01 -4.33468108E-01  1.04652506E+00
 -1.84658041E-08 -2.55674171E-01  5.08820479E-01 -1.73798308E-01 -2.26446034E-01
 -2.28708815E-01 -4.27594838E-10 -1.97151821E-10  4.70476611E-02  2.25882580E-02
  4.85559219E-01 -1.29530106E-08 -3.40524276E-01 -4.33468108E-01 -1.04652506E+00
  1.84658041E-08  2.55674171E-01  5.08820479E-01  1.73798308E-01  2.26446034E-01
  2.28708815E-01  4.27594838E-10 -1.97151821E-10  4.70476611E-02  0.00000000E+00
  0.00000000E+00  0.00000000E+00  0.00000000E+00  3.80100406E-03  0.00000000E+00
  0.00000000E+00  0.00000000E+00 -3.09669108E-01  0.00000000E+00  0.00000000E+00
  0.00000000E+00  0.00000000E+00  4.89251536E-10 -2.35239810E-01  0.00000000E+00
  0.00000000E+00 -9.90386960E-10 -8.98503813E-09 -6.87617941E-01 -1.01210813E-08
 -2.18412118E-08  3.55449233E-08  7.80941162E-01  2.81867979E-08  2.60935388E-08
 -4.23383443E-09 -6.89305417E-09 -2.58859013E-09 -1.80256051E-03  4.17742617E-02
  3.55036168E-09  9.90386960E-10  8.98503813E-09  6.87617941E-01  1.01210813E-08
 -2.18412118E-08 -3.55449233E-08 -7.80941162E-01 -2.81867979E-08  2.60935388E-08
  4.23383443E-09  6.89305417E-09  2.58859013E-09  1.80256051E-03  4.17742617E-02
  3.55036168E-09  0.00000000E+00  0.00000000E+00  0.00000000E+00  0.00000000E+00
 -1.06544154E-09  0.00000000E+00  0.00000000E+00  0.00000000E+00 -3.46143536E-08
  0.00000000E+00  0.00000000E+00  0.00000000E+00  0.00000000E+00 -9.57575707E-02