71080                                                                   
Freq      RMP2-FC                                                     6-31G(d)            
Number of atoms                            I               13
Info1-9                                    I   N=           9
          25          23        1002           0           0         100
           6           2           1
Charge                                     I                0
Multiplicity                               I                1
Number of electrons                        I               48
Number of alpha electrons                  I               24
Number of beta electrons                   I               24
Number of basis functions                  I              104
Number of independent functions            I              104
Number of point charges in /Mol/           I                0
Number of translation vectors              I                0
Atomic numbers                             I   N=          13
           8           8           7           6           6           6
           1           1           1           1           1           1
           1
Nuclear charges                            R   N=          13
  8.00000000E+00  8.00000000E+00  7.00000000E+00  6.00000000E+00  6.00000000E+00
  6.00000000E+00  1.00000000E+00  1.00000000E+00  1.00000000E+00  1.00000000E+00
  1.00000000E+00  1.00000000E+00  1.00000000E+00
Current cartesian coordinates              R   N=          39
 -3.05425609E+00  1.57127023E+00 -7.19822906E-01 -2.17507412E+00 -2.22461729E+00
  1.05922868E+00  2.92067795E+00 -1.93112066E+00 -5.42507194E-01  1.25968032E+00
  2.52353900E-01 -7.60348307E-01  2.25317673E+00  2.41053262E+00  8.84205159E-01
 -1.46018973E+00 -3.27495906E-01 -3.84979173E-02  1.25285440E+00  8.74300642E-01
 -2.73600671E+00  4.20238638E+00  2.81813550E+00  3.47036939E-01  1.10185731E+00
  4.10812602E+00  6.61716760E-01  2.22883789E+00  1.85284066E+00  2.87683732E+00
  2.27061252E+00 -3.33648348E+00 -1.69062770E+00  2.74944778E+00 -2.63553943E+00
  1.24515158E+00 -4.73210418E+00  1.05089751E+00 -1.33957606E-01
Force Field                                I                0
Int Atom Types                             I   N=          13
           0           0           0           0           0           0
           0           0           0           0           0           0
           0
MM charges                                 R   N=          13
  0.00000000E+00  0.00000000E+00  0.00000000E+00  0.00000000E+00  0.00000000E+00
  0.00000000E+00  0.00000000E+00  0.00000000E+00  0.00000000E+00  0.00000000E+00
  0.00000000E+00  0.00000000E+00  0.00000000E+00
Integer atomic weights                     I   N=          13
          16          16          14          12          12          12
           1           1           1           1           1           1
           1
Real atomic weights                        R   N=          13
  1.59949146E+01  1.59949146E+01  1.40030740E+01  1.20000000E+01  1.20000000E+01
  1.20000000E+01  1.00782504E+00  1.00782504E+00  1.00782504E+00  1.00782504E+00
  1.00782504E+00  1.00782504E+00  1.00782504E+00
Atom fragment info                         I   N=          13
           0           0           0           0           0           0
           0           0           0           0           0           0
           0
Atom residue num                           I   N=          13
           0           0           0           0           0           0
           0           0           0           0           0           0
           0
Nuclear spins                              I   N=          13
           0           0           2           0           0           0
           1           1           1           1           1           1
           1
Nuclear ZEff                               R   N=          13
 -5.60000000E+00 -5.60000000E+00 -4.55000000E+00 -3.60000000E+00 -3.60000000E+00
 -3.60000000E+00 -1.00000000E+00 -1.00000000E+00 -1.00000000E+00 -1.00000000E+00
 -1.00000000E+00 -1.00000000E+00 -1.00000000E+00
Nuclear QMom                               R   N=          13
  0.00000000E+00  0.00000000E+00  2.04400000E+00  0.00000000E+00  0.00000000E+00
  0.00000000E+00  0.00000000E+00  0.00000000E+00  0.00000000E+00  0.00000000E+00
  0.00000000E+00  0.00000000E+00  0.00000000E+00
Nuclear GFac                               R   N=          13
  0.00000000E+00  0.00000000E+00  4.03761000E-01  0.00000000E+00  0.00000000E+00
  0.00000000E+00  2.79284600E+00  2.79284600E+00  2.79284600E+00  2.79284600E+00
  2.79284600E+00  2.79284600E+00  2.79284600E+00
MicOpt                                     I   N=          13
          -1          -1          -1          -1          -1          -1
          -1          -1          -1          -1          -1          -1
          -1
Number of contracted shells                I               38
Number of primitive shells                 I               94
Pure/Cartesian d shells                    I                1
Pure/Cartesian f shells                    I                0
Highest angular momentum                   I                2
Largest degree of contraction              I                6
Shell types                                I   N=          38
           0          -1          -1           2           0          -1
          -1           2           0          -1          -1           2
           0          -1          -1           2           0          -1
          -1           2           0          -1          -1           2
           0           0           0           0           0           0
           0           0           0           0           0           0
           0           0
Number of primitives per shell             I   N=          38
           6           3           1           1           6           3
           1           1           6           3           1           1
           6           3           1           1           6           3
           1           1           6           3           1           1
           3           1           3           1           3           1
           3           1           3           1           3           1
           3           1
Shell to atom map                          I   N=          38
           1           1           1           1           2           2
           2           2           3           3           3           3
           4           4           4           4           5           5
           5           5           6           6           6           6
           7           7           8           8           9           9
          10          10          11          11          12          12
          13          13
Primitive exponents                        R   N=          94
  5.48467166E+03  8.25234946E+02  1.88046958E+02  5.29645000E+01  1.68975704E+01
  5.79963534E+00  1.55396162E+01  3.59993359E+00  1.01376175E+00  2.70005823E-01
  8.00000000E-01  5.48467166E+03  8.25234946E+02  1.88046958E+02  5.29645000E+01
  1.68975704E+01  5.79963534E+00  1.55396162E+01  3.59993359E+00  1.01376175E+00
  2.70005823E-01  8.00000000E-01  4.17351146E+03  6.27457911E+02  1.42902093E+02
  4.02343293E+01  1.28202129E+01  4.39043701E+00  1.16263619E+01  2.71627981E+00
  7.72218397E-01  2.12031498E-01  8.00000000E-01  3.04752488E+03  4.57369518E+02
  1.03948685E+02  2.92101553E+01  9.28666296E+00  3.16392696E+00  7.86827235E+00
  1.88128854E+00  5.44249258E-01  1.68714478E-01  8.00000000E-01  3.04752488E+03
  4.57369518E+02  1.03948685E+02  2.92101553E+01  9.28666296E+00  3.16392696E+00
  7.86827235E+00  1.88128854E+00  5.44249258E-01  1.68714478E-01  8.00000000E-01
  3.04752488E+03  4.57369518E+02  1.03948685E+02  2.92101553E+01  9.28666296E+00
  3.16392696E+00  7.86827235E+00  1.88128854E+00  5.44249258E-01  1.68714478E-01
  8.00000000E-01  1.87311370E+01  2.82539436E+00  6.40121692E-01  1.61277759E-01
  1.87311370E+01  2.82539436E+00  6.40121692E-01  1.61277759E-01  1.87311370E+01
  2.82539436E+00  6.40121692E-01  1.61277759E-01  1.87311370E+01  2.82539436E+00
  6.40121692E-01  1.61277759E-01  1.87311370E+01  2.82539436E+00  6.40121692E-01
  1.61277759E-01  1.87311370E+01  2.82539436E+00  6.40121692E-01  1.61277759E-01
  1.87311370E+01  2.82539436E+00  6.40121692E-01  1.61277759E-01
Contraction coefficients                   R   N=          94
  1.83107443E-03  1.39501722E-02  6.84450781E-02  2.32714336E-01  4.70192898E-01
  3.58520853E-01 -1.10777550E-01 -1.48026263E-01  1.13076702E+00  1.00000000E+00
  1.00000000E+00  1.83107443E-03  1.39501722E-02  6.84450781E-02  2.32714336E-01
  4.70192898E-01  3.58520853E-01 -1.10777550E-01 -1.48026263E-01  1.13076702E+00
  1.00000000E+00  1.00000000E+00  1.83477216E-03  1.39946270E-02  6.85865518E-02
  2.32240873E-01  4.69069948E-01  3.60455199E-01 -1.14961182E-01 -1.69117479E-01
  1.14585195E+00  1.00000000E+00  1.00000000E+00  1.83473713E-03  1.40373228E-02
  6.88426223E-02  2.32184443E-01  4.67941348E-01  3.62311985E-01 -1.19332420E-01
 -1.60854152E-01  1.14345644E+00  1.00000000E+00  1.00000000E+00  1.83473713E-03
  1.40373228E-02  6.88426223E-02  2.32184443E-01  4.67941348E-01  3.62311985E-01
 -1.19332420E-01 -1.60854152E-01  1.14345644E+00  1.00000000E+00  1.00000000E+00
  1.83473713E-03  1.40373228E-02  6.88426223E-02  2.32184443E-01  4.67941348E-01
  3.62311985E-01 -1.19332420E-01 -1.60854152E-01  1.14345644E+00  1.00000000E+00
  1.00000000E+00  3.34946043E-02  2.34726953E-01  8.13757326E-01  1.00000000E+00
  3.34946043E-02  2.34726953E-01  8.13757326E-01  1.00000000E+00  3.34946043E-02
  2.34726953E-01  8.13757326E-01  1.00000000E+00  3.34946043E-02  2.34726953E-01
  8.13757326E-01  1.00000000E+00  3.34946043E-02  2.34726953E-01  8.13757326E-01
  1.00000000E+00  3.34946043E-02  2.34726953E-01  8.13757326E-01  1.00000000E+00
  3.34946043E-02  2.34726953E-01  8.13757326E-01  1.00000000E+00
P(S=P) Contraction coefficients            R   N=          94
  0.00000000E+00  0.00000000E+00  0.00000000E+00  0.00000000E+00  0.00000000E+00
  0.00000000E+00  7.08742682E-02  3.39752839E-01  7.27158577E-01  1.00000000E+00
  0.00000000E+00  0.00000000E+00  0.00000000E+00  0.00000000E+00  0.00000000E+00
  0.00000000E+00  0.00000000E+00  7.08742682E-02  3.39752839E-01  7.27158577E-01
  1.00000000E+00  0.00000000E+00  0.00000000E+00  0.00000000E+00  0.00000000E+00
  0.00000000E+00  0.00000000E+00  0.00000000E+00  6.75797439E-02  3.23907296E-01
  7.40895140E-01  1.00000000E+00  0.00000000E+00  0.00000000E+00  0.00000000E+00
  0.00000000E+00  0.00000000E+00  0.00000000E+00  0.00000000E+00  6.89990666E-02
  3.16423961E-01  7.44308291E-01  1.00000000E+00  0.00000000E+00  0.00000000E+00
  0.00000000E+00  0.00000000E+00  0.00000000E+00  0.00000000E+00  0.00000000E+00
  6.89990666E-02  3.16423961E-01  7.44308291E-01  1.00000000E+00  0.00000000E+00
  0.00000000E+00  0.00000000E+00  0.00000000E+00  0.00000000E+00  0.00000000E+00
  0.00000000E+00  6.89990666E-02  3.16423961E-01  7.44308291E-01  1.00000000E+00
  0.00000000E+00  0.00000000E+00  0.00000000E+00  0.00000000E+00  0.00000000E+00
  0.00000000E+00  0.00000000E+00  0.00000000E+00  0.00000000E+00  0.00000000E+00
  0.00000000E+00  0.00000000E+00  0.00000000E+00  0.00000000E+00  0.00000000E+00
  0.00000000E+00  0.00000000E+00  0.00000000E+00  0.00000000E+00  0.00000000E+00
  0.00000000E+00  0.00000000E+00  0.00000000E+00  0.00000000E+00  0.00000000E+00
  0.00000000E+00  0.00000000E+00  0.00000000E+00  0.00000000E+00
Coordinates of each shell                  R   N=         114
 -3.05425609E+00  1.57127023E+00 -7.19822906E-01 -3.05425609E+00  1.57127023E+00
 -7.19822906E-01 -3.05425609E+00  1.57127023E+00 -7.19822906E-01 -3.05425609E+00
  1.57127023E+00 -7.19822906E-01 -2.17507412E+00 -2.22461729E+00  1.05922868E+00
 -2.17507412E+00 -2.22461729E+00  1.05922868E+00 -2.17507412E+00 -2.22461729E+00
  1.05922868E+00 -2.17507412E+00 -2.22461729E+00  1.05922868E+00  2.92067795E+00
 -1.93112066E+00 -5.42507194E-01  2.92067795E+00 -1.93112066E+00 -5.42507194E-01
  2.92067795E+00 -1.93112066E+00 -5.42507194E-01  2.92067795E+00 -1.93112066E+00
 -5.42507194E-01  1.25968032E+00  2.52353900E-01 -7.60348307E-01  1.25968032E+00
  2.52353900E-01 -7.60348307E-01  1.25968032E+00  2.52353900E-01 -7.60348307E-01
  1.25968032E+00  2.52353900E-01 -7.60348307E-01  2.25317673E+00  2.41053262E+00
  8.84205159E-01  2.25317673E+00  2.41053262E+00  8.84205159E-01  2.25317673E+00
  2.41053262E+00  8.84205159E-01  2.25317673E+00  2.41053262E+00  8.84205159E-01
 -1.46018973E+00 -3.27495906E-01 -3.84979173E-02 -1.46018973E+00 -3.27495906E-01
 -3.84979173E-02 -1.46018973E+00 -3.27495906E-01 -3.84979173E-02 -1.46018973E+00
 -3.27495906E-01 -3.84979173E-02  1.25285440E+00  8.74300642E-01 -2.73600671E+00
  1.25285440E+00  8.74300642E-01 -2.73600671E+00  4.20238638E+00  2.81813550E+00
  3.47036939E-01  4.20238638E+00  2.81813550E+00  3.47036939E-01  1.10185731E+00
  4.10812602E+00  6.61716760E-01  1.10185731E+00  4.10812602E+00  6.61716760E-01
  2.22883789E+00  1.85284066E+00  2.87683732E+00  2.22883789E+00  1.85284066E+00
  2.87683732E+00  2.27061252E+00 -3.33648348E+00 -1.69062770E+00  2.27061252E+00
 -3.33648348E+00 -1.69062770E+00  2.74944778E+00 -2.63553943E+00  1.24515158E+00
  2.74944778E+00 -2.63553943E+00  1.24515158E+00 -4.73210418E+00  1.05089751E+00
 -1.33957606E-01 -4.73210418E+00  1.05089751E+00 -1.33957606E-01
Constraint Structure                       R   N=          39
 -3.05425609E+00  1.57127023E+00 -7.19822906E-01 -2.17507412E+00 -2.22461729E+00
  1.05922868E+00  2.92067795E+00 -1.93112066E+00 -5.42507194E-01  1.25968032E+00
  2.52353900E-01 -7.60348307E-01  2.25317673E+00  2.41053262E+00  8.84205159E-01
 -1.46018973E+00 -3.27495906E-01 -3.84979173E-02  1.25285440E+00  8.74300642E-01
 -2.73600671E+00  4.20238638E+00  2.81813550E+00  3.47036939E-01  1.10185731E+00
  4.10812602E+00  6.61716760E-01  2.22883789E+00  1.85284066E+00  2.87683732E+00
  2.27061252E+00 -3.33648348E+00 -1.69062770E+00  2.74944778E+00 -2.63553943E+00
  1.24515158E+00 -4.73210418E+00  1.05089751E+00 -1.33957606E-01
Num ILSW                                   I              100
ILSW                                       I   N=         100
           0           1           0           0           2           0
           0           0           0           0           0          -1
           0           0           0           0           0           0
           0           0           0           0           1           0
           1           0           0           0           0           0
           0           0      100000           0          -1           0
           0           0           0           0           0           0
           0           0           0           1           1           0
           0           0           1           0           0           0
           0           0           4          40           0           0
           0           0           0           0           0           0
           0           0           0           0           0           0
           0           0           0           0           0           0
           0           0           0           0           0           0
           0           0           0           0           0           0
           0           0           0           0           0           0
           0           0           0           0
Num RLSW                                   I               40
RLSW                                       R   N=          40
  1.00000000E+00  1.00000000E+00  1.00000000E+00  1.00000000E+00  1.00000000E+00
  0.00000000E+00  0.00000000E+00  1.00000000E+00  0.00000000E+00  0.00000000E+00
  0.00000000E+00  0.00000000E+00  1.00000000E+00  0.00000000E+00  0.00000000E+00
  0.00000000E+00  0.00000000E+00  1.00000000E+00  0.00000000E+00  0.00000000E+00
  0.00000000E+00  0.00000000E+00  1.00000000E+00  0.00000000E+00  0.00000000E+00
  0.00000000E+00  0.00000000E+00  1.00000000E+00  0.00000000E+00  0.00000000E+00
  0.00000000E+00  0.00000000E+00  0.00000000E+00  0.00000000E+00  0.00000000E+00
  0.00000000E+00  0.00000000E+00  0.00000000E+00  1.00000000E+00  1.00000000E+00
MxBond                                     I                4
NBond                                      I   N=          13
           2           1           3           4           4           3
           1           1           1           1           1           1
           1
IBond                                      I   N=          52
           6          13           0           0           6           0
           0           0           4          11          12           0
           3           5           6           7           4           8
           9          10           1           2           4           0
           4           0           0           0           5           0
           0           0           5           0           0           0
           5           0           0           0           3           0
           0           0           3           0           0           0
           1           0           0           0
RBond                                      R   N=          52
  1.50000000E+00  1.00000000E+00  0.00000000E+00  0.00000000E+00  2.00000000E+00
  0.00000000E+00  0.00000000E+00  0.00000000E+00  1.00000000E+00  1.00000000E+00
  1.00000000E+00  0.00000000E+00  1.00000000E+00  1.00000000E+00  1.00000000E+00
  1.00000000E+00  1.00000000E+00  1.00000000E+00  1.00000000E+00  1.00000000E+00
  1.50000000E+00  2.00000000E+00  1.00000000E+00  0.00000000E+00  1.00000000E+00
  0.00000000E+00  0.00000000E+00  0.00000000E+00  1.00000000E+00  0.00000000E+00
  0.00000000E+00  0.00000000E+00  1.00000000E+00  0.00000000E+00  0.00000000E+00
  0.00000000E+00  1.00000000E+00  0.00000000E+00  0.00000000E+00  0.00000000E+00
  1.00000000E+00  0.00000000E+00  0.00000000E+00  0.00000000E+00  1.00000000E+00
  0.00000000E+00  0.00000000E+00  0.00000000E+00  1.00000000E+00  0.00000000E+00
  0.00000000E+00  0.00000000E+00
Virial Ratio                               R      2.002837337791798E+00
SCF Energy                                 R     -3.218632291839577E+02
MP2 Energy                                 R     -3.227707531205267E+02
Total Energy                               R     -3.227707531205267E+02
Post-SCF wavefunction norm                 R      1.597637892978191E+00
RMS Force                                  R      2.562112390846913E-07
RMS Density                                R      1.645937512927181E-09
External E-field                           R   N=          35
  0.00000000E+00  0.00000000E+00  0.00000000E+00  0.00000000E+00  0.00000000E+00
  0.00000000E+00  0.00000000E+00  0.00000000E+00  0.00000000E+00  0.00000000E+00
  0.00000000E+00  0.00000000E+00  0.00000000E+00  0.00000000E+00  0.00000000E+00
  0.00000000E+00  0.00000000E+00  0.00000000E+00  0.00000000E+00  0.00000000E+00
  0.00000000E+00  0.00000000E+00  0.00000000E+00  0.00000000E+00  0.00000000E+00
  0.00000000E+00  0.00000000E+00  0.00000000E+00  0.00000000E+00  0.00000000E+00
  0.00000000E+00  0.00000000E+00  0.00000000E+00  0.00000000E+00  0.00000000E+00
IOpCl                                      I                0
IROHF                                      I                0
Alpha Orbital Energies                     R   N=         104
 -2.06259679E+01 -2.05646390E+01 -1.55531220E+01 -1.13920672E+01 -1.12807896E+01
 -1.12304884E+01 -1.46250028E+00 -1.35941462E+00 -1.19863416E+00 -1.02117866E+00
 -9.05076553E-01 -7.91588707E-01 -7.09248922E-01 -7.02121888E-01 -6.68913273E-01
 -6.28058104E-01 -6.04097720E-01 -5.93264687E-01 -5.47095651E-01 -5.29654647E-01
 -5.09019283E-01 -4.80985824E-01 -4.56854263E-01 -4.09125742E-01  1.71853713E-01
  2.16358923E-01  2.30733294E-01  2.72168942E-01  2.87480148E-01  3.16711067E-01
  3.24923403E-01  3.37902817E-01  3.93238136E-01  4.15411222E-01  4.43460024E-01
  5.07837031E-01  5.60049677E-01  7.21668589E-01  7.37395774E-01  7.46198200E-01
  7.83398098E-01  8.51007836E-01  8.65757975E-01  9.20503552E-01  9.51709612E-01
  9.65773043E-01  9.86716285E-01  1.02285490E+00  1.04485317E+00  1.06753921E+00
  1.10552536E+00  1.14451226E+00  1.15535243E+00  1.16359278E+00  1.18057985E+00
  1.20491527E+00  1.21535466E+00  1.23571498E+00  1.25988419E+00  1.28372158E+00
  1.33401568E+00  1.36917954E+00  1.39454113E+00  1.51605788E+00  1.57501851E+00
  1.64519577E+00  1.67393080E+00  1.76254497E+00  1.81735761E+00  1.90432351E+00
  1.94304930E+00  1.96740209E+00  2.01518073E+00  2.04683278E+00  2.09285805E+00
  2.11528809E+00  2.14364944E+00  2.23718377E+00  2.26546255E+00  2.30398359E+00
  2.31673969E+00  2.41141931E+00  2.42832513E+00  2.45972294E+00  2.50817195E+00
  2.61527723E+00  2.64562277E+00  2.68912622E+00  2.72483782E+00  2.80031362E+00
  2.85819252E+00  2.95685793E+00  2.97217499E+00  3.02915158E+00  3.12744613E+00
  3.22645380E+00  3.35558205E+00  3.45474082E+00  4.14618328E+00  4.33128439E+00
  4.49077708E+00  4.66991186E+00  4.73091011E+00  5.00899096E+00
Alpha MO coefficients                      R   N=       10816
  9.94639876E-01  2.11866755E-02 -2.91358813E-04 -1.07709067E-03  6.10738111E-04
  3.96299906E-03  2.70886549E-04  5.27522534E-04 -3.14589378E-04 -4.15245752E-03
 -4.05470367E-03 -3.98014471E-03  2.89060534E-05  3.23404689E-05  6.20125065E-05
 -2.81137363E-04  2.11286811E-05  1.91681683E-05 -3.32629199E-05  1.66936981E-05
 -2.34371304E-04  6.78985720E-05 -8.62903616E-05  1.94078521E-05  3.68342486E-05
 -4.95779778E-05 -1.07853240E-05  3.85508997E-05 -3.12125544E-05  1.48376733E-05
  9.29183419E-06  4.49032646E-05  1.88936940E-06  2.40218879E-07 -3.14897434E-06
 -4.29064299E-04  1.39327743E-04 -1.49272036E-04  1.22276242E-05  8.61414262E-06
  1.49844570E-05  1.55957160E-05  1.46999814E-05  1.66737382E-06 -4.28769026E-06
 -1.09409990E-05 -1.68390187E-05 -5.81306131E-06  1.92696398E-05 -4.66323110E-06
  7.20863404E-04  1.14830735E-04 -3.60201799E-04  1.54421957E-04 -6.84584979E-05
  2.58632578E-06 -3.24410936E-05  1.24603887E-05  1.51022065E-06 -4.20351829E-06
 -8.70237878E-07 -9.12474088E-06 -2.36355966E-05 -1.27026028E-05  6.94321055E-06
  8.22355779E-05  1.30198406E-05  1.92179049E-04 -6.64552113E-05  1.82007342E-05
 -2.15230015E-05  2.97282438E-06  6.64560235E-07  2.30329151E-06 -5.69861419E-06
 -3.90351279E-06  3.81707338E-04 -1.98098425E-04  2.32058352E-04 -8.69693322E-05
 -1.74801397E-04 -4.17390649E-04 -1.68351041E-04  1.82655965E-04 -4.12217415E-05
 -5.99142009E-05 -5.14319674E-05  4.26651880E-05 -2.40085446E-05 -5.93373538E-06
  3.56312164E-05 -4.40983395E-05 -1.60828363E-05 -4.92256759E-05  4.06763685E-05
 -2.21826540E-04  8.19554030E-06  4.93561575E-05  1.53236414E-05 -7.05677246E-06
  1.52873724E-05 -2.86684792E-05  4.38676940E-04 -2.57526119E-04  2.79095784E-04
 -4.06267317E-05  2.02405694E-06  3.37688385E-05 -1.84709118E-05  1.41533496E-04
  2.49856138E-05 -6.55870584E-05  2.80892553E-05  5.01798645E-05 -7.94383686E-05
 -7.56190238E-05 -4.32321749E-05 -2.27260248E-06  1.57103217E-05  9.94691846E-01
  2.09817223E-02  4.53607090E-04  1.29960028E-03 -7.41363258E-04  4.51764013E-03
 -1.60623276E-05 -1.69495847E-05  6.01846691E-07 -3.88852993E-03 -3.74192236E-03
 -4.00766773E-03  7.61936312E-05 -9.04253610E-05 -2.43139562E-04  5.76402086E-06
  2.89864241E-05 -1.00333652E-05 -1.13652222E-06 -8.69949229E-07 -1.52517391E-04
  7.84403826E-05 -8.51640649E-05  1.76369814E-05  1.08194593E-05 -8.48328230E-06
  1.61843759E-05  7.09738821E-06  3.13159733E-06  4.09669992E-06 -4.46043172E-06
 -2.59865232E-05  6.32567014E-06  1.64916559E-05 -1.16506991E-05  8.82467534E-05
  1.69276247E-04 -6.94531258E-05  3.04814505E-05  2.85617226E-05 -1.82936275E-05
 -2.64466861E-05 -5.47477115E-05  1.52190466E-05  1.66803893E-05  4.71653082E-06
  1.80164621E-05 -1.33965716E-05 -2.19354360E-06  1.23306665E-06 -1.10507856E-04
  6.94482978E-05  5.50274388E-05 -6.68355326E-06  4.35424819E-06  5.33787948E-06
  1.25674895E-05  2.50039454E-07 -2.79217413E-06 -1.45475085E-06 -5.31983299E-06
  4.82996621E-04  9.26301862E-06  4.11726413E-05 -2.80120590E-05 -3.77698150E-04
  2.86705787E-04  4.06535677E-04 -2.37267882E-04 -1.27083313E-04 -5.75467947E-04
 -2.13993883E-04 -2.05451761E-04  1.23550814E-04  3.55101444E-04  6.14422498E-06
 -3.37214258E-05 -1.47406412E-06 -4.11415224E-05  1.39698812E-05 -2.14386705E-06
  6.53317383E-06  3.57957849E-05  2.30797636E-05 -2.06024438E-05  3.00482880E-05
 -7.95931501E-05 -1.75277812E-05 -1.65479942E-05 -4.59517953E-05 -2.01814569E-04
 -2.27587497E-05  1.04395774E-05 -4.30070047E-06  1.15729578E-03  3.18572485E-04
 -2.74069793E-04  9.09139556E-05 -1.05508079E-04 -1.04821111E-04 -1.40217822E-04
 -4.81218023E-05  1.70171520E-05 -1.30102283E-05  4.76099269E-08  1.38671757E-05
 -2.21078283E-05  5.77261427E-06  1.33217048E-05 -2.13223400E-04 -7.64822079E-05
  3.84839138E-05 -2.68472301E-05 -2.94369045E-05  1.90294954E-05 -2.00791045E-05
 -2.59933810E-06 -6.33270233E-06 -2.69451463E-05  9.95049005E-01  2.49074512E-02
 -1.49639585E-03 -2.98570888E-04  3.11665861E-04 -2.73209537E-03  1.37819402E-03
  8.90860009E-06 -2.06185253E-04 -3.21132742E-03 -3.34088176E-03 -3.33344870E-03
  1.15780591E-04 -5.55589196E-05 -1.91610172E-05 -1.70705475E-05  1.87967761E-04
  1.49446408E-04 -2.04278017E-04  2.36147973E-05  1.70583337E-03  1.09511382E-06
 -5.21295935E-04  2.21952104E-05 -1.11459582E-04 -1.59878321E-04 -9.58541622E-05
  6.81197867E-05 -4.23858534E-06  8.19322273E-06 -1.46985498E-05 -4.51595415E-05
  3.65921742E-06  4.86771222E-05  1.69755117E-05  1.44002392E-04  1.48246211E-06
  3.74986811E-05  2.87697804E-05 -2.13501984E-05 -5.16478683E-05 -4.13692162E-05
 -1.58090530E-05  1.73554158E-05 -4.86793599E-06 -1.48386781E-05 -2.06272446E-05
 -6.31830552E-05  2.53053203E-05  1.09991319E-05 -7.21149441E-04  2.73712220E-04
 -7.23976307E-04  3.13921991E-04 -8.97079843E-05 -6.14551684E-05 -5.54130272E-05
  3.48506808E-05 -1.40271674E-05  1.43373202E-05 -8.82108179E-05 -1.43722277E-04
  1.52055660E-06 -6.90200455E-05 -1.78665702E-05  2.95880868E-05  7.80366077E-06
 -1.23678008E-04  3.41444122E-04  5.84100653E-04  3.33941811E-04  5.69339982E-04
 -2.10266650E-05  5.25508213E-05 -1.15730729E-04  4.99356102E-04 -7.66224320E-06
 -1.36058701E-04  8.01528425E-05 -6.45839486E-04  8.25201102E-05  1.40561462E-03
 -7.14519815E-04 -1.47025938E-04 -3.85176005E-04  2.89276910E-04  4.65834763E-04
 -1.17181950E-04  3.79312312E-04 -2.59918380E-04  7.23405661E-04  3.26898260E-05
  2.31318609E-04 -1.50195459E-04 -3.88797404E-03  8.44818756E-05 -1.76107951E-03
  1.02092641E-03  3.26233502E-04  6.74284673E-05  3.28396536E-04  8.48071476E-05
 -6.22087616E-06  2.30092006E-04 -2.99814408E-05 -1.75686351E-04  5.03917492E-05
 -2.13843010E-05 -1.55957099E-05  7.48226688E-04 -1.54842435E-04  3.80916963E-04
  1.30416057E-04 -1.88091941E-05 -5.74453339E-06 -1.12567032E-04 -2.05866505E-05
 -5.64534589E-05 -1.78785735E-05  2.66704772E-03  2.47597086E-04 -1.57084317E-05
  5.18856884E-06  2.60228540E-05  2.97755283E-03 -2.59503910E-03 -2.84810482E-04
 -3.39486168E-04 -3.73011979E-04 -2.20059365E-04 -1.22400957E-04 -3.63904831E-05
  7.64213260E-05 -2.53203208E-05 -9.58569439E-05 -3.83434863E-04  1.76224667E-04
  5.15887081E-05 -2.99940131E-05  1.35926088E-03 -1.05748298E-03 -7.00614105E-04
  7.80095927E-05 -3.92183418E-05 -3.25173619E-05 -1.04773237E-04  6.16894130E-05
  1.22425335E-05  4.20746464E-05  9.95920867E-01  2.60691943E-02 -9.66856991E-04
  3.73688469E-04  6.53178604E-05 -6.49393077E-03 -3.86896880E-03 -2.63013369E-03
  1.78812788E-03 -1.18713702E-03 -7.83892748E-04 -1.83679222E-03 -4.50395010E-06
 -1.86687375E-04 -8.52587275E-04 -1.98648511E-04  5.91186975E-05  2.21928990E-05
  6.43087325E-04 -1.33810037E-04 -1.18784234E-04 -1.68026443E-04 -2.03377430E-04
 -4.61750862E-05  9.21402590E-05 -8.15301754E-05  4.85417769E-05  2.88345257E-04
  1.09166516E-04 -9.18524378E-05 -5.31394291E-04 -1.22393851E-04  7.35778014E-05
 -2.62697254E-06  2.42050860E-03  7.02754043E-04 -7.40227168E-04  2.22400685E-04
 -1.51387733E-04 -2.14075336E-04 -3.63148191E-04 -7.11151320E-05 -8.60518749E-07
 -9.43721731E-05  2.52675688E-06 -4.37126444E-05 -1.34559451E-05 -3.42077612E-05
  2.97003698E-07 -5.23031653E-04 -6.34658022E-04  2.48063443E-04  2.45420851E-05
 -1.59981836E-05  9.81264338E-05 -8.94174189E-05 -5.97452844E-05  3.15511080E-05
 -1.29865336E-04 -2.27334077E-04 -2.01668101E-05 -7.15312695E-05  3.43087451E-05
  2.79391170E-05  4.16688822E-03 -1.02647674E-03  1.41540673E-03  3.20062935E-06
 -2.91083632E-04 -4.16968411E-04 -6.61984364E-05  2.21764211E-04 -6.73360447E-05
  8.84399535E-05  9.96013886E-01  2.87289603E-02 -1.61957171E-04 -2.90099250E-04
  2.82900415E-04 -2.12502630E-02  5.45715440E-04  7.12644185E-04 -2.14869850E-03
 -1.30685103E-03 -1.34570099E-03 -1.22534317E-03 -8.16407531E-05  2.66659247E-05
 -1.32758938E-05  5.76494899E-03  6.35935337E-05 -8.95078972E-05 -1.43022446E-04
 -1.04813007E-04  5.41466172E-03 -8.30108862E-04 -2.10782958E-03 -9.55308472E-04
 -1.86142715E-04 -2.45378261E-04 -2.62806008E-04 -4.82485310E-05 -6.96940302E-05
 -1.90979995E-04 -2.96406976E-03  2.03575006E-05  1.87281938E-04  4.20511142E-05
 -6.69866852E-06  4.47375114E-03  4.03826817E-03 -1.19813109E-03  6.93023454E-05
 -5.18411267E-04 -2.51584560E-04 -1.79653321E-04 -1.85670391E-05  1.42644403E-04
  6.19926955E-05  2.95406253E-04  2.54917396E-03 -1.69487629E-04 -8.76417989E-05
 -1.56800410E-04  1.76379808E-05 -2.41221722E-04 -2.18543279E-04 -5.42817315E-05
  9.27174459E-05 -7.78730592E-05  2.74529989E-04 -3.47637979E-05  4.23322408E-04
  2.60038933E-05  1.28227286E-04  6.17988429E-06  7.81450585E-07 -1.77312131E-05
 -7.84803099E-04 -3.24526983E-04  4.96141269E-05 -3.64009743E-05  1.93412794E-05
  1.10821642E-04  5.53460930E-05  1.99234492E-05  5.87625078E-06 -6.35742094E-06