
    -----------------------------------------------------------------------
          Psi4: An Open-Source Ab Initio Electronic Structure Package
                               Psi4 1.4a3.dev225 

                         Git: Rev {master} 7105e37 


    D. G. A. Smith, L. A. Burns, A. C. Simmonett, R. M. Parrish,
    M. C. Schieber, R. Galvelis, P. Kraus, H. Kruse, R. Di Remigio,
    A. Alenaizan, A. M. James, S. Lehtola, J. P. Misiewicz, M. Scheurer,
    R. A. Shaw, J. B. Schriber, Y. Xie, Z. L. Glick, D. A. Sirianni,
    J. S. O'Brien, J. M. Waldrop, A. Kumar, E. G. Hohenstein,
    B. P. Pritchard, B. R. Brooks, H. F. Schaefer III, A. Yu. Sokolov,
    K. Patkowski, A. E. DePrince III, U. Bozkaya, R. A. King,
    F. A. Evangelista, J. M. Turney, T. D. Crawford, C. D. Sherrill,
    J. Chem. Phys. 152(18) 184108 (2020). https://doi.org/10.1063/5.0006002

                            Additional Code Authors
    E. T. Seidl, C. L. Janssen, E. F. Valeev, M. L. Leininger,
    J. F. Gonthier, R. M. Richard, H. R. McAlexander, M. Saitow, X. Wang,
    P. Verma, and M. H. Lechner

             Previous Authors, Complete List of Code Contributors,
                       and Citations for Specific Modules
    https://github.com/psi4/psi4/blob/master/codemeta.json
    https://github.com/psi4/psi4/graphs/contributors
    http://psicode.org/psi4manual/master/introduction.html#citing-psifour

    -----------------------------------------------------------------------


    Psi4 started on: Saturday, 27 February 2021 11:58PM

    Process ID: 20777
    Host:       c401-054.stampede2.tacc.utexas.edu
    PSIDATADIR: /home1/07844/xy3866/miniconda3/envs/p4env/share/psi4
    Memory:     500.0 MiB
    Threads:    32
    
  ==> Input File <==

--------------------------------------------------------------------------
#psi4
#
memory 32 gb

molecule  {
0 1
 Br        2.0414680    -0.1099760    -0.0581920
 Cl       -2.9367276    -0.6191518    -0.1249611
  C       -0.6470580     0.8674560    -0.2707750
  C        0.1661770    -0.1443180     0.5157990
  C       -2.0963830     0.9300650     0.1865370
  H       -0.2098610     1.8640010    -0.1402420
  H       -0.6025590     0.6288560    -1.3373490
  H        0.1749140     0.0782120     1.5838910
  H       -0.1794760    -1.1643000     0.3558400
  H       -2.1673080     1.1350030     1.2569080
  H       -2.6351350     1.7092920    -0.3548340
units angstrom
no_reorient  #important for SAPT in psi4, default
symmetry c1  #important for SAPT in psi4, default
}

set PROPERTIES_ORIGIN ["COM"]
properties('MP2/aug-cc-pvtz', properties = ['dipole'])
--------------------------------------------------------------------------

  Memory set to  29.802 GiB by Python driver.
    SCF Algorithm Type (re)set to DF.

*** tstart() called on c401-054.stampede2.tacc.utexas.edu
*** at Sat Feb 27 23:59:01 2021

   => Loading Basis Set <=

    Name: AUG-CC-PVTZ
    Role: ORBITAL
    Keyword: BASIS
    atoms 1    entry BR         line  4208 file /home1/07844/xy3866/miniconda3/envs/p4env/share/psi4/basis/aug-cc-pvtz.gbs 
    atoms 2    entry CL         line   988 file /home1/07844/xy3866/miniconda3/envs/p4env/share/psi4/basis/aug-cc-pvtz.gbs 
    atoms 3-5  entry C          line   239 file /home1/07844/xy3866/miniconda3/envs/p4env/share/psi4/basis/aug-cc-pvtz.gbs 
    atoms 6-11 entry H          line    40 file /home1/07844/xy3866/miniconda3/envs/p4env/share/psi4/basis/aug-cc-pvtz.gbs 


         ---------------------------------------------------------
                                   SCF
               by Justin Turney, Rob Parrish, Andy Simmonett
                          and Daniel G. A. Smith
                              RHF Reference
                       32 Threads,  30517 MiB Core
         ---------------------------------------------------------

  ==> Geometry <==

    Molecular point group: c1
    Full point group: C1

    Geometry (in Angstrom), charge = 0, multiplicity = 1:

       Center              X                  Y                   Z               Mass       
    ------------   -----------------  -----------------  -----------------  -----------------
         BR           1.901506983357    -0.070168255229    -0.042746112572    78.918337600000
         CL          -3.076688616643    -0.579344055229    -0.109515212572    34.968852682000
         C           -0.787019016643     0.907263744771    -0.255329112572    12.000000000000
         C            0.026215983357    -0.104510255229     0.531244887428    12.000000000000
         C           -2.236344016643     0.969872744771     0.201982887428    12.000000000000
         H           -0.349822016643     1.903808744771    -0.124796112572     1.007825032230
         H           -0.742520016643     0.668663744771    -1.321903112572     1.007825032230
         H            0.034952983357     0.118019744771     1.599336887428     1.007825032230
         H           -0.319437016643    -1.124492255229     0.371285887428     1.007825032230
         H           -2.307269016643     1.174810744771     1.272353887428     1.007825032230
         H           -2.775096016643     1.749099744771    -0.339388112572     1.007825032230

  Running in c1 symmetry.

  Rotational constants: A =      0.30857  B =      0.02377  C =      0.02275 [cm^-1]
  Rotational constants: A =   9250.70233  B =    712.52022  C =    681.98195 [MHz]
  Nuclear repulsion =  374.002445316689716

  Charge       = 0
  Multiplicity = 1
  Electrons    = 76
  Nalpha       = 38
  Nbeta        = 38

  ==> Algorithm <==

  SCF Algorithm Type is DF.
  DIIS enabled.
  MOM disabled.
  Fractional occupation disabled.
  Guess Type is SAD.
  Energy threshold   = 1.00e-10
  Density threshold  = 1.00e-10
  Integral threshold = 1.00e-12

  ==> Primary Basis <==

  Basis Set: AUG-CC-PVTZ
    Blend: AUG-CC-PVTZ
    Number of shells: 131
    Number of basis functions: 385
    Number of Cartesian functions: 443
    Spherical Harmonics?: true
    Max angular momentum: 3

   => Loading Basis Set <=

    Name: (AUG-CC-PVTZ AUX)
    Role: JKFIT
    Keyword: DF_BASIS_SCF
    atoms 1    entry BR         line  1492 file /home1/07844/xy3866/miniconda3/envs/p4env/share/psi4/basis/aug-cc-pvtz-jkfit.gbs 
    atoms 2    entry CL         line   816 file /home1/07844/xy3866/miniconda3/envs/p4env/share/psi4/basis/aug-cc-pvtz-jkfit.gbs 
    atoms 3-5  entry C          line   162 file /home1/07844/xy3866/miniconda3/envs/p4env/share/psi4/basis/aug-cc-pvtz-jkfit.gbs 
    atoms 6-11 entry H          line    70 file /home1/07844/xy3866/miniconda3/envs/p4env/share/psi4/basis/aug-cc-pvtz-jkfit.gbs 

  ==> Integral Setup <==

  DFHelper Memory: AOs need 1.134 GiB; user supplied 22.352 GiB. Using in-core AOs.

  ==> MemDFJK: Density-Fitted J/K Matrices <==

    J tasked:                   Yes
    K tasked:                   Yes
    wK tasked:                   No
    OpenMP threads:              32
    Memory [MiB]:             22888
    Algorithm:                 Core
    Schwarz Cutoff:           1E-12
    Mask sparsity (%):       2.1036
    Fitting Condition:        1E-10

   => Auxiliary Basis Set <=

  Basis Set: (AUG-CC-PVTZ AUX)
    Blend: AUG-CC-PVTZ-JKFIT
    Number of shells: 274
    Number of basis functions: 982
    Number of Cartesian functions: 1232
    Spherical Harmonics?: true
    Max angular momentum: 4

  Minimum eigenvalue in the overlap matrix is 1.6632656336E-05.
  Reciprocal condition number of the overlap matrix is 1.0180910849E-06.
    Using symmetric orthogonalization.

  ==> Pre-Iterations <==

  SCF Guess: Superposition of Atomic Densities via on-the-fly atomic UHF (no occupation information).

   -------------------------
    Irrep   Nso     Nmo    
   -------------------------
     A        385     385 
   -------------------------
    Total     385     385
   -------------------------

  ==> Iterations <==

                           Total Energy        Delta E     RMS |[F,P]|

   @DF-RHF iter SAD: -3147.13560920965256   -3.14714e+03   0.00000e+00 
   @DF-RHF iter   1: -3148.87814799736725   -1.74254e+00   2.64516e-03 DIIS
   @DF-RHF iter   2: -3149.08595351290660   -2.07806e-01   1.18619e-03 DIIS
   @DF-RHF iter   3: -3149.12653990006993   -4.05864e-02   1.01485e-04 DIIS
   @DF-RHF iter   4: -3149.12815824348672   -1.61834e-03   2.89078e-05 DIIS
   @DF-RHF iter   5: -3149.12825422888136   -9.59854e-05   8.77508e-06 DIIS
   @DF-RHF iter   6: -3149.12826309256934   -8.86369e-06   2.16858e-06 DIIS
   @DF-RHF iter   7: -3149.12826380784054   -7.15271e-07   6.25391e-07 DIIS
   @DF-RHF iter   8: -3149.12826388227040   -7.44299e-08   1.99343e-07 DIIS
   @DF-RHF iter   9: -3149.12826389204292   -9.77252e-09   8.46284e-08 DIIS
   @DF-RHF iter  10: -3149.12826389352585   -1.48293e-09   2.16970e-08 DIIS
   @DF-RHF iter  11: -3149.12826389362181   -9.59517e-11   6.45743e-09 DIIS
   @DF-RHF iter  12: -3149.12826389362681   -5.00222e-12   1.83431e-09 DIIS
   @DF-RHF iter  13: -3149.12826389362863   -1.81899e-12   6.97161e-10 DIIS
   @DF-RHF iter  14: -3149.12826389363181   -3.18323e-12   2.27734e-10 DIIS
   @DF-RHF iter  15: -3149.12826389362999    1.81899e-12   6.62333e-11 DIIS
  Energy and wave function converged.


  ==> Post-Iterations <==

    Orbital Energies [Eh]
    ---------------------

    Doubly Occupied:                                                      

       1A   -490.013494     2A   -104.834366     3A    -65.153384  
       4A    -58.508648     5A    -58.507318     6A    -58.507310  
       7A    -11.308791     8A    -11.299092     9A    -11.259087  
      10A    -10.558869    11A     -9.826078    12A     -8.025695  
      13A     -8.023921    14A     -8.023891    15A     -7.437428  
      16A     -7.431047    17A     -7.430994    18A     -3.180937  
      19A     -3.177651    20A     -3.177611    21A     -3.169376  
      22A     -3.169376    23A     -1.159570    24A     -1.087329  
      25A     -1.001472    26A     -0.900048    27A     -0.822882  
      28A     -0.674721    29A     -0.644678    30A     -0.608051  
      31A     -0.579324    32A     -0.538905    33A     -0.512803  
      34A     -0.487897    35A     -0.447159    36A     -0.444130  
      37A     -0.403741    38A     -0.401754  

    Virtual:                                                              

      39A      0.026184    40A      0.036115    41A      0.043524  
      42A      0.045509    43A      0.059183    44A      0.060896  
      45A      0.067396    46A      0.080698    47A      0.096825  
      48A      0.109145    49A      0.119234    50A      0.123279  
      51A      0.126197    52A      0.131008    53A      0.132987  
      54A      0.137193    55A      0.145690    56A      0.149151  
      57A      0.152942    58A      0.161239    59A      0.166932  
      60A      0.169363    61A      0.172540    62A      0.192117  
      63A      0.199070    64A      0.205509    65A      0.219039  
      66A      0.243987    67A      0.257030    68A      0.266307  
      69A      0.275109    70A      0.276422    71A      0.286453  
      72A      0.296858    73A      0.302154    74A      0.312846  
      75A      0.320259    76A      0.329659    77A      0.335208  
      78A      0.347860    79A      0.354365    80A      0.359530  
      81A      0.366758    82A      0.376032    83A      0.377243  
      84A      0.381838    85A      0.387831    86A      0.394744  
      87A      0.401426    88A      0.407942    89A      0.412460  
      90A      0.416690    91A      0.426311    92A      0.427934  
      93A      0.442345    94A      0.451347    95A      0.460093  
      96A      0.461986    97A      0.474087    98A      0.482870  
      99A      0.491014   100A      0.494816   101A      0.500485  
     102A      0.505831   103A      0.509239   104A      0.516761  
     105A      0.524878   106A      0.535560   107A      0.538213  
     108A      0.552427   109A      0.575502   110A      0.579081  
     111A      0.585956   112A      0.590590   113A      0.601726  
     114A      0.611838   115A      0.628085   116A      0.642907  
     117A      0.663951   118A      0.677360   119A      0.686626  
     120A      0.703061   121A      0.722640   122A      0.741717  
     123A      0.766877   124A      0.774981   125A      0.785308  
     126A      0.791810   127A      0.794184   128A      0.805167  
     129A      0.818417   130A      0.823545   131A      0.831732  
     132A      0.842333   133A      0.856382   134A      0.863690  
     135A      0.870404   136A      0.877546   137A      0.889242  
     138A      0.894089   139A      0.902248   140A      0.907012  
     141A      0.914856   142A      0.919332   143A      0.928403  
     144A      0.942577   145A      0.949052   146A      0.954934  
     147A      0.968384   148A      0.977095   149A      0.998643  
     150A      1.007193   151A      1.011963   152A      1.026606  
     153A      1.037407   154A      1.052242   155A      1.056025  
     156A      1.061391   157A      1.072477   158A      1.074357  
     159A      1.094151   160A      1.097386   161A      1.099154  
     162A      1.114600   163A      1.133095   164A      1.147758  
     165A      1.154631   166A      1.158105   167A      1.163894  
     168A      1.174203   169A      1.193105   170A      1.196780  
     171A      1.212076   172A      1.224242   173A      1.244388  
     174A      1.249536   175A      1.258314   176A      1.285855  
     177A      1.296952   178A      1.298455   179A      1.325884  
     180A      1.340042   181A      1.351902   182A      1.357345  
     183A      1.378464   184A      1.386777   185A      1.399791  
     186A      1.411474   187A      1.430243   188A      1.439768  
     189A      1.472606   190A      1.482526   191A      1.490885  
     192A      1.502668   193A      1.517876   194A      1.524817  
     195A      1.546675   196A      1.563009   197A      1.569187  
     198A      1.595336   199A      1.599515   200A      1.624918  
     201A      1.631616   202A      1.638898   203A      1.649505  
     204A      1.668558   205A      1.674906   206A      1.685975  
     207A      1.693551   208A      1.708106   209A      1.715789  
     210A      1.723018   211A      1.741298   212A      1.749644  
     213A      1.770377   214A      1.794904   215A      1.811015  
     216A      1.820351   217A      1.841731   218A      1.851593  
     219A      1.863517   220A      1.881767   221A      1.897335  
     222A      1.904461   223A      1.919362   224A      1.947175  
     225A      1.972477   226A      1.980164   227A      1.983669  
     228A      2.017396   229A      2.043468   230A      2.053733  
     231A      2.062728   232A      2.072135   233A      2.109577  
     234A      2.131301   235A      2.168023   236A      2.183383  
     237A      2.215573   238A      2.222868   239A      2.240459  
     240A      2.247546   241A      2.256431   242A      2.268680  
     243A      2.292384   244A      2.317523   245A      2.344118  
     246A      2.371021   247A      2.375573   248A      2.385096  
     249A      2.396292   250A      2.399805   251A      2.427104  
     252A      2.447048   253A      2.459651   254A      2.469288  
     255A      2.493871   256A      2.523637   257A      2.552426  
     258A      2.609247   259A      2.632585   260A      2.667065  
     261A      2.679943   262A      2.707418   263A      2.729288  
     264A      2.752859   265A      2.762770   266A      2.776330  
     267A      2.798688   268A      2.829469   269A      2.858734  
     270A      2.991872   271A      3.031601   272A      3.062600  
     273A      3.116983   274A      3.156510   275A      3.176316  
     276A      3.193094   277A      3.227208   278A      3.253130  
     279A      3.270317   280A      3.275773   281A      3.314631  
     282A      3.334312   283A      3.365855   284A      3.408355  
     285A      3.417174   286A      3.445933   287A      3.468855  
     288A      3.516203   289A      3.542324   290A      3.556793  
     291A      3.589373   292A      3.606202   293A      3.625226  
     294A      3.635314   295A      3.668105   296A      3.685772  
     297A      3.715884   298A      3.726114   299A      3.760850  
     300A      3.781866   301A      3.799234   302A      3.818717  
     303A      3.854652   304A      3.874628   305A      3.891749  
     306A      3.911345   307A      3.929478   308A      3.939280  
     309A      3.947824   310A      3.973906   311A      4.000119  
     312A      4.013064   313A      4.042714   314A      4.075239  
     315A      4.095755   316A      4.122831   317A      4.145880  
     318A      4.154108   319A      4.204814   320A      4.221067  
     321A      4.231869   322A      4.248056   323A      4.268701  
     324A      4.287673   325A      4.335585   326A      4.387540  
     327A      4.398050   328A      4.412248   329A      4.448764  
     330A      4.488839   331A      4.527673   332A      4.586797  
     333A      4.615246   334A      4.625311   335A      4.654929  
     336A      4.682397   337A      4.724101   338A      4.779598  
     339A      4.817948   340A      4.838669   341A      4.866434  
     342A      4.884130   343A      4.916504   344A      4.944797  
     345A      4.985595   346A      5.025166   347A      5.053290  
     348A      5.081320   349A      5.094554   350A      5.126283  
     351A      5.147502   352A      5.170535   353A      5.212499  
     354A      5.238110   355A      5.249071   356A      5.260281  
     357A      5.337984   358A      5.358905   359A      5.396121  
     360A      5.428596   361A      5.451483   362A      5.498405  
     363A      5.541218   364A      5.567621   365A      5.611713  
     366A      5.645234   367A      5.688051   368A      5.771975  
     369A      5.888408   370A      5.945287   371A      5.990111  
     372A      6.024189   373A      6.105708   374A      6.133810  
     375A      6.195887   376A      6.202617   377A      6.379831  
     378A      6.461314   379A      6.701425   380A      6.725775  
     381A      6.866667   382A      7.933369   383A     16.980507  
     384A     17.113291   385A     18.150497  

    Final Occupation by Irrep:
              A 
    DOCC [    38 ]

  @DF-RHF Final Energy: -3149.12826389362999

   => Energetics <=

    Nuclear Repulsion Energy =            374.0024453166897160
    One-Electron Energy =               -5120.7837661143776131
    Two-Electron Energy =                1597.6530569040580758
    Total Energy =                      -3149.1282638936299918

Computation Completed

*** tstop() called on c401-054.stampede2.tacc.utexas.edu at Sat Feb 27 23:59:29 2021
Module time:
	user time   =     251.89 seconds =       4.20 minutes
	system time =      22.94 seconds =       0.38 minutes
	total time  =         28 seconds =       0.47 minutes
Total time:
	user time   =     251.89 seconds =       4.20 minutes
	system time =      22.94 seconds =       0.38 minutes
	total time  =         28 seconds =       0.47 minutes
   => Loading Basis Set <=

    Name: (AUG-CC-PVTZ AUX)
    Role: RIFIT
    Keyword: DF_BASIS_MP2
    atoms 1    entry BR         line  1248 file /home1/07844/xy3866/miniconda3/envs/p4env/share/psi4/basis/aug-cc-pvtz-ri.gbs 
    atoms 2    entry CL         line   742 file /home1/07844/xy3866/miniconda3/envs/p4env/share/psi4/basis/aug-cc-pvtz-ri.gbs 
    atoms 3-5  entry C          line   148 file /home1/07844/xy3866/miniconda3/envs/p4env/share/psi4/basis/aug-cc-pvtz-ri.gbs 
    atoms 6-11 entry H          line    30 file /home1/07844/xy3866/miniconda3/envs/p4env/share/psi4/basis/aug-cc-pvtz-ri.gbs 


*** tstart() called on c401-054.stampede2.tacc.utexas.edu
*** at Sat Feb 27 23:59:30 2021


  //>>>>>>>>>>>>>>>>>>>>>>>>>>>>>>>>>>>//
  //               DFMP2               //
  //<<<<<<<<<<<<<<<<<<<<<<<<<<<<<<<<<<<//

	 --------------------------------------------------------
	                          DF-MP2                         
	      2nd-Order Density-Fitted Moller-Plesset Theory     
	              RMP2 Wavefunction,  32 Threads             
	                                                         
	        Rob Parrish, Justin Turney, Andy Simmonett,      
	           Ed Hohenstein, and C. David Sherrill          
	 --------------------------------------------------------

   => Auxiliary Basis Set <=

  Basis Set: (AUG-CC-PVTZ AUX)
    Blend: AUG-CC-PVTZ-RI
    Number of shells: 248
    Number of basis functions: 932
    Number of Cartesian functions: 1190
    Spherical Harmonics?: true
    Max angular momentum: 5

	 --------------------------------------------------------
	                 NBF =   385, NAUX =   932
	 --------------------------------------------------------
	   CLASS    FOCC     OCC    AOCC    AVIR     VIR    FVIR
	   PAIRS       0      38      38     347     347       0
	 --------------------------------------------------------

  DFHelper Memory: AOs need 1.147 GiB; user supplied 22.352 GiB. Using in-core AOs.


         ------------------------------------------------------------
                                     CPHF                           
                                  Rob Parrish                       
         ------------------------------------------------------------

  ==> Geometry <==

    Molecular point group: c1
    Full point group: C1

    Geometry (in Angstrom), charge = 0, multiplicity = 1:

       Center              X                  Y                   Z               Mass       
    ------------   -----------------  -----------------  -----------------  -----------------
         BR           1.901506983357    -0.070168255229    -0.042746112572    78.918337600000
         CL          -3.076688616643    -0.579344055229    -0.109515212572    34.968852682000
         C           -0.787019016643     0.907263744771    -0.255329112572    12.000000000000
         C            0.026215983357    -0.104510255229     0.531244887428    12.000000000000
         C           -2.236344016643     0.969872744771     0.201982887428    12.000000000000
         H           -0.349822016643     1.903808744771    -0.124796112572     1.007825032230
         H           -0.742520016643     0.668663744771    -1.321903112572     1.007825032230
         H            0.034952983357     0.118019744771     1.599336887428     1.007825032230
         H           -0.319437016643    -1.124492255229     0.371285887428     1.007825032230
         H           -2.307269016643     1.174810744771     1.272353887428     1.007825032230
         H           -2.775096016643     1.749099744771    -0.339388112572     1.007825032230

  Nuclear repulsion =  374.002445316689716
  Reference energy  = -3149.128263893629992

  ==> Basis Set <==

  Basis Set: AUG-CC-PVTZ
    Blend: AUG-CC-PVTZ
    Number of shells: 131
    Number of basis functions: 385
    Number of Cartesian functions: 443
    Spherical Harmonics?: true
    Max angular momentum: 3

  ==> CGRSolver (by Rob Parrish) <==

   Number of roots    =         1
   Preconditioning    =    JACOBI
   Convergence cutoff =     1E-06
   Maximum iterations =       100

  ==> CPHFRHamiltonian (by Rob Parrish) <== 

  ==> MemDFJK: Density-Fitted J/K Matrices <==

    J tasked:                   Yes
    K tasked:                   Yes
    wK tasked:                   No
    OpenMP threads:              32
    Memory [MiB]:             22888
    Algorithm:                 Core
    Schwarz Cutoff:           1E-12
    Mask sparsity (%):       0.8730
    Fitting Condition:        1E-10

   => Auxiliary Basis Set <=

  Basis Set: (AUG-CC-PVTZ AUX)
    Blend: AUG-CC-PVTZ-JKFIT
    Number of shells: 274
    Number of basis functions: 982
    Number of Cartesian functions: 1232
    Spherical Harmonics?: true
    Max angular momentum: 4

  ==> CPHF Iterations <==

  => Iterations <=

             Iter  Converged  Remaining    Residual
  CGR           1          0          1   8.730E-02
  CGR           2          0          1   2.307E-02
  CGR           3          0          1   4.999E-03
  CGR           4          0          1   1.152E-03
  CGR           5          0          1   3.440E-04
  CGR           6          0          1   1.422E-04
  CGR           7          0          1   4.409E-05
  CGR           8          0          1   1.091E-05
  CGR           9          0          1   3.523E-06
  CGR          10          1          0   9.951E-07

    CGRSolver converged.

	-----------------------------------------------------------
	 ==================> DF-MP2 Energies <==================== 
	-----------------------------------------------------------
	 Reference Energy          =   -3149.1282638936299918 [Eh]
	 Singles Energy            =      -0.0000000000000000 [Eh]
	 Same-Spin Energy          =      -0.2759411871077496 [Eh]
	 Opposite-Spin Energy      =      -0.8328085058191113 [Eh]
	 Correlation Energy        =      -1.1087496929268608 [Eh]
	 Total Energy              =   -3150.2370135865567136 [Eh]
	-----------------------------------------------------------
	 ================> DF-SCS-MP2 Energies <================== 
	-----------------------------------------------------------
	 SCS Same-Spin Scale       =       0.3333333333333333 [-]
	 SCS Opposite-Spin Scale   =       1.2000000000000000 [-]
	 SCS Same-Spin Energy      =      -0.0919803957025832 [Eh]
	 SCS Opposite-Spin Energy  =      -0.9993702069829334 [Eh]
	 SCS Correlation Energy    =      -1.0913506026855166 [Eh]
	 SCS Total Energy          =   -3150.2196144963154438 [Eh]
	-----------------------------------------------------------



Properties will be evaluated at   0.000000,  -0.000000,  -0.000000 [a0]

Properties computed using the MP2 density matrix

  Nuclear Dipole Moment: [e a0]
     X:   -19.2620      Y:     5.3308      Z:     1.8262

  Electronic Dipole Moment: [e a0]
     X:    18.8815      Y:    -4.6740      Z:    -1.5486

  Dipole Moment: [e a0]
     X:    -0.3805      Y:     0.6568      Z:     0.2777     Total:     0.8083

  Dipole Moment: [D]
     X:    -0.9672      Y:     1.6694      Z:     0.7058     Total:     2.0544


*** tstop() called on c401-054.stampede2.tacc.utexas.edu at Sun Feb 28 00:04:26 2021
Module time:
	user time   =     803.16 seconds =      13.39 minutes
	system time =      25.67 seconds =       0.43 minutes
	total time  =        296 seconds =       4.93 minutes
Total time:
	user time   =    1056.19 seconds =      17.60 minutes
	system time =      48.69 seconds =       0.81 minutes
	total time  =        325 seconds =       5.42 minutes

    Psi4 stopped on: Sunday, 28 February 2021 12:04AM
    Psi4 wall time for execution: 0:05:26.37

*** Psi4 exiting successfully. Buy a developer a beer!
