
    -----------------------------------------------------------------------
          Psi4: An Open-Source Ab Initio Electronic Structure Package
                               Psi4 1.4a3.dev225 

                         Git: Rev {master} 7105e37 


    D. G. A. Smith, L. A. Burns, A. C. Simmonett, R. M. Parrish,
    M. C. Schieber, R. Galvelis, P. Kraus, H. Kruse, R. Di Remigio,
    A. Alenaizan, A. M. James, S. Lehtola, J. P. Misiewicz, M. Scheurer,
    R. A. Shaw, J. B. Schriber, Y. Xie, Z. L. Glick, D. A. Sirianni,
    J. S. O'Brien, J. M. Waldrop, A. Kumar, E. G. Hohenstein,
    B. P. Pritchard, B. R. Brooks, H. F. Schaefer III, A. Yu. Sokolov,
    K. Patkowski, A. E. DePrince III, U. Bozkaya, R. A. King,
    F. A. Evangelista, J. M. Turney, T. D. Crawford, C. D. Sherrill,
    J. Chem. Phys. 152(18) 184108 (2020). https://doi.org/10.1063/5.0006002

                            Additional Code Authors
    E. T. Seidl, C. L. Janssen, E. F. Valeev, M. L. Leininger,
    J. F. Gonthier, R. M. Richard, H. R. McAlexander, M. Saitow, X. Wang,
    P. Verma, and M. H. Lechner

             Previous Authors, Complete List of Code Contributors,
                       and Citations for Specific Modules
    https://github.com/psi4/psi4/blob/master/codemeta.json
    https://github.com/psi4/psi4/graphs/contributors
    http://psicode.org/psi4manual/master/introduction.html#citing-psifour

    -----------------------------------------------------------------------


    Psi4 started on: Sunday, 28 February 2021 02:09AM

    Process ID: 41080
    Host:       c401-054.stampede2.tacc.utexas.edu
    PSIDATADIR: /home1/07844/xy3866/miniconda3/envs/p4env/share/psi4
    Memory:     500.0 MiB
    Threads:    32
    
  ==> Input File <==

--------------------------------------------------------------------------
#psi4
#
memory 32 gb

molecule  {
0 1
 Br        2.0414680    -0.1099760    -0.0581920
 Cl       -2.9628450    -0.6071240    -0.1127560
  C       -0.6470580     0.8674560    -0.2707750
  C        0.1661770    -0.1443180     0.5157990
  C       -2.0963830     0.9300650     0.1865370
  H       -0.2098610     1.8640010    -0.1402420
  H       -0.6025590     0.6288560    -1.3373490
  H        0.1749140     0.0782120     1.5838910
  H       -0.1794760    -1.1643000     0.3558400
  H       -2.1673080     1.1350030     1.2569080
  H       -2.7338876     1.8521234    -0.4540667
units angstrom
no_reorient  #important for SAPT in psi4, default
symmetry c1  #important for SAPT in psi4, default
}

set PROPERTIES_ORIGIN ["COM"]
properties('MP2/aug-cc-pvtz', properties = ['dipole'])
--------------------------------------------------------------------------

  Memory set to  29.802 GiB by Python driver.
    SCF Algorithm Type (re)set to DF.

*** tstart() called on c401-054.stampede2.tacc.utexas.edu
*** at Sun Feb 28 02:09:05 2021

   => Loading Basis Set <=

    Name: AUG-CC-PVTZ
    Role: ORBITAL
    Keyword: BASIS
    atoms 1    entry BR         line  4208 file /home1/07844/xy3866/miniconda3/envs/p4env/share/psi4/basis/aug-cc-pvtz.gbs 
    atoms 2    entry CL         line   988 file /home1/07844/xy3866/miniconda3/envs/p4env/share/psi4/basis/aug-cc-pvtz.gbs 
    atoms 3-5  entry C          line   239 file /home1/07844/xy3866/miniconda3/envs/p4env/share/psi4/basis/aug-cc-pvtz.gbs 
    atoms 6-11 entry H          line    40 file /home1/07844/xy3866/miniconda3/envs/p4env/share/psi4/basis/aug-cc-pvtz.gbs 


         ---------------------------------------------------------
                                   SCF
               by Justin Turney, Rob Parrish, Andy Simmonett
                          and Daniel G. A. Smith
                              RHF Reference
                       32 Threads,  30517 MiB Core
         ---------------------------------------------------------

  ==> Geometry <==

    Molecular point group: c1
    Full point group: C1

    Geometry (in Angstrom), charge = 0, multiplicity = 1:

       Center              X                  Y                   Z               Mass       
    ------------   -----------------  -----------------  -----------------  -----------------
         BR           1.908002166851    -0.073788677447    -0.044841799532    78.918337600000
         CL          -3.096310833149    -0.570936677447    -0.099405799532    34.968852682000
         C           -0.780523833149     0.903643322553    -0.257424799532    12.000000000000
         C            0.032711166851    -0.108130677447     0.529149200468    12.000000000000
         C           -2.229848833149     0.966252322553     0.199887200468    12.000000000000
         H           -0.343326833149     1.900188322553    -0.126891799532     1.007825032230
         H           -0.736024833149     0.665043322553    -1.323998799532     1.007825032230
         H            0.041448166851     0.114399322553     1.597241200468     1.007825032230
         H           -0.312941833149    -1.128112677447     0.369190200468     1.007825032230
         H           -2.300773833149     1.171190322553     1.270258200468     1.007825032230
         H           -2.867353433149     1.888310722553    -0.440716499532     1.007825032230

  Running in c1 symmetry.

  Rotational constants: A =      0.30820  B =      0.02356  C =      0.02256 [cm^-1]
  Rotational constants: A =   9239.59191  B =    706.37123  C =    676.30903 [MHz]
  Nuclear repulsion =  372.449314917328707

  Charge       = 0
  Multiplicity = 1
  Electrons    = 76
  Nalpha       = 38
  Nbeta        = 38

  ==> Algorithm <==

  SCF Algorithm Type is DF.
  DIIS enabled.
  MOM disabled.
  Fractional occupation disabled.
  Guess Type is SAD.
  Energy threshold   = 1.00e-10
  Density threshold  = 1.00e-10
  Integral threshold = 1.00e-12

  ==> Primary Basis <==

  Basis Set: AUG-CC-PVTZ
    Blend: AUG-CC-PVTZ
    Number of shells: 131
    Number of basis functions: 385
    Number of Cartesian functions: 443
    Spherical Harmonics?: true
    Max angular momentum: 3

   => Loading Basis Set <=

    Name: (AUG-CC-PVTZ AUX)
    Role: JKFIT
    Keyword: DF_BASIS_SCF
    atoms 1    entry BR         line  1492 file /home1/07844/xy3866/miniconda3/envs/p4env/share/psi4/basis/aug-cc-pvtz-jkfit.gbs 
    atoms 2    entry CL         line   816 file /home1/07844/xy3866/miniconda3/envs/p4env/share/psi4/basis/aug-cc-pvtz-jkfit.gbs 
    atoms 3-5  entry C          line   162 file /home1/07844/xy3866/miniconda3/envs/p4env/share/psi4/basis/aug-cc-pvtz-jkfit.gbs 
    atoms 6-11 entry H          line    70 file /home1/07844/xy3866/miniconda3/envs/p4env/share/psi4/basis/aug-cc-pvtz-jkfit.gbs 

  ==> Integral Setup <==

  DFHelper Memory: AOs need 1.133 GiB; user supplied 22.352 GiB. Using in-core AOs.

  ==> MemDFJK: Density-Fitted J/K Matrices <==

    J tasked:                   Yes
    K tasked:                   Yes
    wK tasked:                   No
    OpenMP threads:              32
    Memory [MiB]:             22888
    Algorithm:                 Core
    Schwarz Cutoff:           1E-12
    Mask sparsity (%):       2.2331
    Fitting Condition:        1E-10

   => Auxiliary Basis Set <=

  Basis Set: (AUG-CC-PVTZ AUX)
    Blend: AUG-CC-PVTZ-JKFIT
    Number of shells: 274
    Number of basis functions: 982
    Number of Cartesian functions: 1232
    Spherical Harmonics?: true
    Max angular momentum: 4

  Minimum eigenvalue in the overlap matrix is 1.7639082982E-05.
  Reciprocal condition number of the overlap matrix is 1.0897935900E-06.
    Using symmetric orthogonalization.

  ==> Pre-Iterations <==

  SCF Guess: Superposition of Atomic Densities via on-the-fly atomic UHF (no occupation information).

   -------------------------
    Irrep   Nso     Nmo    
   -------------------------
     A        385     385 
   -------------------------
    Total     385     385
   -------------------------

  ==> Iterations <==

                           Total Energy        Delta E     RMS |[F,P]|

   @DF-RHF iter SAD: -3147.03488883704767   -3.14703e+03   0.00000e+00 
   @DF-RHF iter   1: -3148.85499750763165   -1.82011e+00   2.64473e-03 DIIS
   @DF-RHF iter   2: -3149.06425843705301   -2.09261e-01   1.18985e-03 DIIS
   @DF-RHF iter   3: -3149.10546981338257   -4.12114e-02   1.02783e-04 DIIS
   @DF-RHF iter   4: -3149.10716439324051   -1.69458e-03   3.14020e-05 DIIS
   @DF-RHF iter   5: -3149.10727539481741   -1.11002e-04   9.98016e-06 DIIS
   @DF-RHF iter   6: -3149.10728735671182   -1.19619e-05   2.55494e-06 DIIS
   @DF-RHF iter   7: -3149.10728847615246   -1.11944e-06   7.91880e-07 DIIS
   @DF-RHF iter   8: -3149.10728861096686   -1.34814e-07   2.44330e-07 DIIS
   @DF-RHF iter   9: -3149.10728862543192   -1.44651e-08   9.17112e-08 DIIS
   @DF-RHF iter  10: -3149.10728862704809   -1.61617e-09   2.44498e-08 DIIS
   @DF-RHF iter  11: -3149.10728862715587   -1.07775e-10   7.66740e-09 DIIS
   @DF-RHF iter  12: -3149.10728862717133   -1.54614e-11   2.29575e-09 DIIS
   @DF-RHF iter  13: -3149.10728862717224   -9.09495e-13   8.39776e-10 DIIS
   @DF-RHF iter  14: -3149.10728862717133    9.09495e-13   2.63311e-10 DIIS
   @DF-RHF iter  15: -3149.10728862716860    2.72848e-12   8.11649e-11 DIIS
  Energy and wave function converged.


  ==> Post-Iterations <==

    Orbital Energies [Eh]
    ---------------------

    Doubly Occupied:                                                      

       1A   -490.014691     2A   -104.836550     3A    -65.154569  
       4A    -58.509838     5A    -58.508499     6A    -58.508492  
       7A    -11.329304     8A    -11.300395     9A    -11.260845  
      10A    -10.560906    11A     -9.827253    12A     -8.027725  
      13A     -8.025939    14A     -8.025911    15A     -7.438620  
      16A     -7.432207    17A     -7.432152    18A     -3.182140  
      19A     -3.178838    20A     -3.178797    21A     -3.170520  
      22A     -3.170519    23A     -1.156888    24A     -1.088857  
      25A     -1.000728    26A     -0.890421    27A     -0.818369  
      28A     -0.673977    29A     -0.621236    30A     -0.606461  
      31A     -0.580210    32A     -0.532868    33A     -0.511789  
      34A     -0.488824    35A     -0.446589    36A     -0.439245  
      37A     -0.404671    38A     -0.402273  

    Virtual:                                                              

      39A      0.026301    40A      0.036045    41A      0.043326  
      42A      0.045704    43A      0.059140    44A      0.060854  
      45A      0.067101    46A      0.080289    47A      0.096713  
      48A      0.109280    49A      0.117503    50A      0.122803  
      51A      0.125918    52A      0.130970    53A      0.132708  
      54A      0.136562    55A      0.143582    56A      0.148800  
      57A      0.152837    58A      0.161226    59A      0.166418  
      60A      0.168772    61A      0.172800    62A      0.190186  
      63A      0.198004    64A      0.204836    65A      0.217286  
      66A      0.241101    67A      0.256662    68A      0.267082  
      69A      0.271489    70A      0.274444    71A      0.278536  
      72A      0.296416    73A      0.301280    74A      0.310969  
      75A      0.318177    76A      0.328421    77A      0.330713  
      78A      0.345305    79A      0.352809    80A      0.358408  
      81A      0.363693    82A      0.371056    83A      0.375285  
      84A      0.381406    85A      0.387842    86A      0.393721  
      87A      0.396915    88A      0.406118    89A      0.409629  
      90A      0.417050    91A      0.419145    92A      0.424698  
      93A      0.440963    94A      0.448412    95A      0.458841  
      96A      0.461660    97A      0.474019    98A      0.480204  
      99A      0.489047   100A      0.494752   101A      0.499292  
     102A      0.503351   103A      0.505926   104A      0.516576  
     105A      0.520620   106A      0.532035   107A      0.537818  
     108A      0.552761   109A      0.573162   110A      0.576158  
     111A      0.584479   112A      0.591190   113A      0.599810  
     114A      0.610410   115A      0.625727   116A      0.647556  
     117A      0.663269   118A      0.676106   119A      0.684359  
     120A      0.704985   121A      0.721664   122A      0.740608  
     123A      0.763994   124A      0.772560   125A      0.777806  
     126A      0.791704   127A      0.792880   128A      0.803944  
     129A      0.814433   130A      0.818615   131A      0.823666  
     132A      0.835179   133A      0.854144   134A      0.858695  
     135A      0.864492   136A      0.876585   137A      0.882626  
     138A      0.896372   139A      0.902231   140A      0.903558  
     141A      0.909607   142A      0.918998   143A      0.927224  
     144A      0.944525   145A      0.949175   146A      0.955435  
     147A      0.968881   148A      0.972580   149A      0.997197  
     150A      0.999496   151A      1.008205   152A      1.023970  
     153A      1.036145   154A      1.049553   155A      1.053657  
     156A      1.064308   157A      1.071260   158A      1.080610  
     159A      1.082942   160A      1.092584   161A      1.096740  
     162A      1.107224   163A      1.125665   164A      1.138459  
     165A      1.143898   166A      1.154901   167A      1.157902  
     168A      1.171722   169A      1.176607   170A      1.184641  
     171A      1.212558   172A      1.225106   173A      1.235723  
     174A      1.247242   175A      1.256538   176A      1.273874  
     177A      1.286282   178A      1.295469   179A      1.320113  
     180A      1.334366   181A      1.342166   182A      1.357162  
     183A      1.374039   184A      1.379552   185A      1.394080  
     186A      1.409385   187A      1.417759   188A      1.432143  
     189A      1.467247   190A      1.481369   191A      1.483028  
     192A      1.500900   193A      1.504363   194A      1.521921  
     195A      1.539853   196A      1.549672   197A      1.560071  
     198A      1.578673   199A      1.590627   200A      1.610071  
     201A      1.628003   202A      1.634638   203A      1.647427  
     204A      1.665669   205A      1.680015   206A      1.684034  
     207A      1.691938   208A      1.696097   209A      1.712849  
     210A      1.721845   211A      1.733433   212A      1.743039  
     213A      1.766886   214A      1.777804   215A      1.788954  
     216A      1.810386   217A      1.830173   218A      1.836234  
     219A      1.845256   220A      1.867770   221A      1.873891  
     222A      1.902094   223A      1.915447   224A      1.943580  
     225A      1.950070   226A      1.969319   227A      1.978803  
     228A      1.995718   229A      2.019101   230A      2.046808  
     231A      2.065043   232A      2.071411   233A      2.098620  
     234A      2.116276   235A      2.143215   236A      2.177443  
     237A      2.200069   238A      2.208024   239A      2.211780  
     240A      2.245765   241A      2.251141   242A      2.272440  
     243A      2.285215   244A      2.312378   245A      2.340671  
     246A      2.360793   247A      2.368589   248A      2.383497  
     249A      2.393786   250A      2.397296   251A      2.423181  
     252A      2.439301   253A      2.454175   254A      2.459289  
     255A      2.494253   256A      2.529895   257A      2.548146  
     258A      2.605428   259A      2.628062   260A      2.659427  
     261A      2.672352   262A      2.701877   263A      2.733699  
     264A      2.743512   265A      2.760404   266A      2.763903  
     267A      2.790294   268A      2.828135   269A      2.855338  
     270A      2.983602   271A      3.026653   272A      3.055815  
     273A      3.107101   274A      3.154056   275A      3.171443  
     276A      3.182405   277A      3.221729   278A      3.252797  
     279A      3.265184   280A      3.282692   281A      3.307767  
     282A      3.322552   283A      3.350764   284A      3.396200  
     285A      3.414102   286A      3.443511   287A      3.468371  
     288A      3.499722   289A      3.522854   290A      3.559206  
     291A      3.574752   292A      3.610827   293A      3.622903  
     294A      3.647530   295A      3.668853   296A      3.673986  
     297A      3.714508   298A      3.723248   299A      3.733853  
     300A      3.753688   301A      3.793749   302A      3.811779  
     303A      3.829914   304A      3.860910   305A      3.882875  
     306A      3.886901   307A      3.900011   308A      3.929259  
     309A      3.940092   310A      3.952700   311A      3.976599  
     312A      4.006610   313A      4.029487   314A      4.055007  
     315A      4.069622   316A      4.087724   317A      4.126533  
     318A      4.137084   319A      4.186681   320A      4.209522  
     321A      4.212577   322A      4.217190   323A      4.246845  
     324A      4.255302   325A      4.303921   326A      4.335704  
     327A      4.356987   328A      4.398686   329A      4.436862  
     330A      4.463443   331A      4.480054   332A      4.529050  
     333A      4.570674   334A      4.596267   335A      4.620855  
     336A      4.661140   337A      4.677386   338A      4.693615  
     339A      4.785297   340A      4.808733   341A      4.834072  
     342A      4.855370   343A      4.873689   344A      4.901797  
     345A      4.920424   346A      4.981118   347A      5.006722  
     348A      5.019331   349A      5.042211   350A      5.061099  
     351A      5.081290   352A      5.137278   353A      5.153543  
     354A      5.162581   355A      5.186500   356A      5.222973  
     357A      5.242110   358A      5.255679   359A      5.310024  
     360A      5.344145   361A      5.397492   362A      5.465242  
     363A      5.490277   364A      5.532616   365A      5.575335  
     366A      5.609511   367A      5.630154   368A      5.687903  
     369A      5.789496   370A      5.865778   371A      5.893244  
     372A      6.010644   373A      6.082007   374A      6.123412  
     375A      6.159247   376A      6.219277   377A      6.337125  
     378A      6.447638   379A      6.543951   380A      6.706995  
     381A      6.859945   382A      7.880482   383A     16.030615  
     384A     17.093368   385A     18.062947  

    Final Occupation by Irrep:
              A 
    DOCC [    38 ]

  @DF-RHF Final Energy: -3149.10728862716860

   => Energetics <=

    Nuclear Repulsion Energy =            372.4493149173287065
    One-Electron Energy =               -5117.6369813886913107
    Two-Electron Energy =                1596.0803778441938903
    Total Energy =                      -3149.1072886271686002

Computation Completed

*** tstop() called on c401-054.stampede2.tacc.utexas.edu at Sun Feb 28 02:09:34 2021
Module time:
	user time   =     252.59 seconds =       4.21 minutes
	system time =      23.61 seconds =       0.39 minutes
	total time  =         29 seconds =       0.48 minutes
Total time:
	user time   =     252.59 seconds =       4.21 minutes
	system time =      23.61 seconds =       0.39 minutes
	total time  =         29 seconds =       0.48 minutes
   => Loading Basis Set <=

    Name: (AUG-CC-PVTZ AUX)
    Role: RIFIT
    Keyword: DF_BASIS_MP2
    atoms 1    entry BR         line  1248 file /home1/07844/xy3866/miniconda3/envs/p4env/share/psi4/basis/aug-cc-pvtz-ri.gbs 
    atoms 2    entry CL         line   742 file /home1/07844/xy3866/miniconda3/envs/p4env/share/psi4/basis/aug-cc-pvtz-ri.gbs 
    atoms 3-5  entry C          line   148 file /home1/07844/xy3866/miniconda3/envs/p4env/share/psi4/basis/aug-cc-pvtz-ri.gbs 
    atoms 6-11 entry H          line    30 file /home1/07844/xy3866/miniconda3/envs/p4env/share/psi4/basis/aug-cc-pvtz-ri.gbs 


*** tstart() called on c401-054.stampede2.tacc.utexas.edu
*** at Sun Feb 28 02:09:35 2021


  //>>>>>>>>>>>>>>>>>>>>>>>>>>>>>>>>>>>//
  //               DFMP2               //
  //<<<<<<<<<<<<<<<<<<<<<<<<<<<<<<<<<<<//

	 --------------------------------------------------------
	                          DF-MP2                         
	      2nd-Order Density-Fitted Moller-Plesset Theory     
	              RMP2 Wavefunction,  32 Threads             
	                                                         
	        Rob Parrish, Justin Turney, Andy Simmonett,      
	           Ed Hohenstein, and C. David Sherrill          
	 --------------------------------------------------------

   => Auxiliary Basis Set <=

  Basis Set: (AUG-CC-PVTZ AUX)
    Blend: AUG-CC-PVTZ-RI
    Number of shells: 248
    Number of basis functions: 932
    Number of Cartesian functions: 1190
    Spherical Harmonics?: true
    Max angular momentum: 5

	 --------------------------------------------------------
	                 NBF =   385, NAUX =   932
	 --------------------------------------------------------
	   CLASS    FOCC     OCC    AOCC    AVIR     VIR    FVIR
	   PAIRS       0      38      38     347     347       0
	 --------------------------------------------------------

  DFHelper Memory: AOs need 1.146 GiB; user supplied 22.352 GiB. Using in-core AOs.


         ------------------------------------------------------------
                                     CPHF                           
                                  Rob Parrish                       
         ------------------------------------------------------------

  ==> Geometry <==

    Molecular point group: c1
    Full point group: C1

    Geometry (in Angstrom), charge = 0, multiplicity = 1:

       Center              X                  Y                   Z               Mass       
    ------------   -----------------  -----------------  -----------------  -----------------
         BR           1.908002166851    -0.073788677447    -0.044841799532    78.918337600000
         CL          -3.096310833149    -0.570936677447    -0.099405799532    34.968852682000
         C           -0.780523833149     0.903643322553    -0.257424799532    12.000000000000
         C            0.032711166851    -0.108130677447     0.529149200468    12.000000000000
         C           -2.229848833149     0.966252322553     0.199887200468    12.000000000000
         H           -0.343326833149     1.900188322553    -0.126891799532     1.007825032230
         H           -0.736024833149     0.665043322553    -1.323998799532     1.007825032230
         H            0.041448166851     0.114399322553     1.597241200468     1.007825032230
         H           -0.312941833149    -1.128112677447     0.369190200468     1.007825032230
         H           -2.300773833149     1.171190322553     1.270258200468     1.007825032230
         H           -2.867353433149     1.888310722553    -0.440716499532     1.007825032230

  Nuclear repulsion =  372.449314917328707
  Reference energy  = -3149.107288627168600

  ==> Basis Set <==

  Basis Set: AUG-CC-PVTZ
    Blend: AUG-CC-PVTZ
    Number of shells: 131
    Number of basis functions: 385
    Number of Cartesian functions: 443
    Spherical Harmonics?: true
    Max angular momentum: 3

  ==> CGRSolver (by Rob Parrish) <==

   Number of roots    =         1
   Preconditioning    =    JACOBI
   Convergence cutoff =     1E-06
   Maximum iterations =       100

  ==> CPHFRHamiltonian (by Rob Parrish) <== 

  ==> MemDFJK: Density-Fitted J/K Matrices <==

    J tasked:                   Yes
    K tasked:                   Yes
    wK tasked:                   No
    OpenMP threads:              32
    Memory [MiB]:             22888
    Algorithm:                 Core
    Schwarz Cutoff:           1E-12
    Mask sparsity (%):       1.0133
    Fitting Condition:        1E-10

   => Auxiliary Basis Set <=

  Basis Set: (AUG-CC-PVTZ AUX)
    Blend: AUG-CC-PVTZ-JKFIT
    Number of shells: 274
    Number of basis functions: 982
    Number of Cartesian functions: 1232
    Spherical Harmonics?: true
    Max angular momentum: 4

  ==> CPHF Iterations <==

  => Iterations <=

             Iter  Converged  Remaining    Residual
  CGR           1          0          1   8.763E-02
  CGR           2          0          1   2.461E-02
  CGR           3          0          1   5.449E-03
  CGR           4          0          1   1.243E-03
  CGR           5          0          1   3.588E-04
  CGR           6          0          1   1.192E-04
  CGR           7          0          1   3.355E-05
  CGR           8          0          1   1.032E-05
  CGR           9          0          1   4.034E-06
  CGR          10          0          1   1.148E-06
  CGR          11          1          0   3.271E-07

    CGRSolver converged.

	-----------------------------------------------------------
	 ==================> DF-MP2 Energies <==================== 
	-----------------------------------------------------------
	 Reference Energy          =   -3149.1072886271686002 [Eh]
	 Singles Energy            =      -0.0000000000000000 [Eh]
	 Same-Spin Energy          =      -0.2762317038810513 [Eh]
	 Opposite-Spin Energy      =      -0.8347360190539126 [Eh]
	 Correlation Energy        =      -1.1109677229349639 [Eh]
	 Total Energy              =   -3150.2182563501037293 [Eh]
	-----------------------------------------------------------
	 ================> DF-SCS-MP2 Energies <================== 
	-----------------------------------------------------------
	 SCS Same-Spin Scale       =       0.3333333333333333 [-]
	 SCS Opposite-Spin Scale   =       1.2000000000000000 [-]
	 SCS Same-Spin Energy      =      -0.0920772346270171 [Eh]
	 SCS Opposite-Spin Energy  =      -1.0016832228646950 [Eh]
	 SCS Correlation Energy    =      -1.0937604574917121 [Eh]
	 SCS Total Energy          =   -3150.2010490846600987 [Eh]
	-----------------------------------------------------------



Properties will be evaluated at  -0.000000,  -0.000000,   0.000000 [a0]

Properties computed using the MP2 density matrix

  Nuclear Dipole Moment: [e a0]
     X:   -19.3549      Y:     5.4671      Z:     1.7298

  Electronic Dipole Moment: [e a0]
     X:    19.0065      Y:    -4.8562      Z:    -1.4526

  Dipole Moment: [e a0]
     X:    -0.3483      Y:     0.6109      Z:     0.2773     Total:     0.7559

  Dipole Moment: [D]
     X:    -0.8854      Y:     1.5528      Z:     0.7048     Total:     1.9214


*** tstop() called on c401-054.stampede2.tacc.utexas.edu at Sun Feb 28 02:14:33 2021
Module time:
	user time   =     812.47 seconds =      13.54 minutes
	system time =      25.45 seconds =       0.42 minutes
	total time  =        298 seconds =       4.97 minutes
Total time:
	user time   =    1066.27 seconds =      17.77 minutes
	system time =      49.14 seconds =       0.82 minutes
	total time  =        328 seconds =       5.47 minutes

    Psi4 stopped on: Sunday, 28 February 2021 02:14AM
    Psi4 wall time for execution: 0:05:27.55

*** Psi4 exiting successfully. Buy a developer a beer!
