
    -----------------------------------------------------------------------
          Psi4: An Open-Source Ab Initio Electronic Structure Package
                               Psi4 1.4a3.dev225 

                         Git: Rev {master} 7105e37 


    D. G. A. Smith, L. A. Burns, A. C. Simmonett, R. M. Parrish,
    M. C. Schieber, R. Galvelis, P. Kraus, H. Kruse, R. Di Remigio,
    A. Alenaizan, A. M. James, S. Lehtola, J. P. Misiewicz, M. Scheurer,
    R. A. Shaw, J. B. Schriber, Y. Xie, Z. L. Glick, D. A. Sirianni,
    J. S. O'Brien, J. M. Waldrop, A. Kumar, E. G. Hohenstein,
    B. P. Pritchard, B. R. Brooks, H. F. Schaefer III, A. Yu. Sokolov,
    K. Patkowski, A. E. DePrince III, U. Bozkaya, R. A. King,
    F. A. Evangelista, J. M. Turney, T. D. Crawford, C. D. Sherrill,
    J. Chem. Phys. 152(18) 184108 (2020). https://doi.org/10.1063/5.0006002

                            Additional Code Authors
    E. T. Seidl, C. L. Janssen, E. F. Valeev, M. L. Leininger,
    J. F. Gonthier, R. M. Richard, H. R. McAlexander, M. Saitow, X. Wang,
    P. Verma, and M. H. Lechner

             Previous Authors, Complete List of Code Contributors,
                       and Citations for Specific Modules
    https://github.com/psi4/psi4/blob/master/codemeta.json
    https://github.com/psi4/psi4/graphs/contributors
    http://psicode.org/psi4manual/master/introduction.html#citing-psifour

    -----------------------------------------------------------------------


    Psi4 started on: Sunday, 28 February 2021 12:44AM

    Process ID: 27694
    Host:       c401-054.stampede2.tacc.utexas.edu
    PSIDATADIR: /home1/07844/xy3866/miniconda3/envs/p4env/share/psi4
    Memory:     500.0 MiB
    Threads:    32
    
  ==> Input File <==

--------------------------------------------------------------------------
#psi4
#
memory 32 gb

molecule  {
0 1
 Br        2.0414680    -0.1099760    -0.0581920
 Cl       -2.9628450    -0.6071240    -0.1127560
  C       -0.6470580     0.8674560    -0.2707750
  C        0.1125974    -0.0776577     0.4639759
  C       -2.0963830     0.9300650     0.1865370
  H       -0.2098610     1.8640010    -0.1402420
  H       -0.6025590     0.6288560    -1.3373490
  H        0.1749140     0.0782120     1.5838910
  H       -0.1794760    -1.1643000     0.3558400
  H       -2.1673080     1.1350030     1.2569080
  H       -2.6351350     1.7092920    -0.3548340
units angstrom
no_reorient  #important for SAPT in psi4, default
symmetry c1  #important for SAPT in psi4, default
}

set PROPERTIES_ORIGIN ["COM"]
properties('MP2/aug-cc-pvtz', properties = ['dipole'])
--------------------------------------------------------------------------

  Memory set to  29.802 GiB by Python driver.
    SCF Algorithm Type (re)set to DF.

*** tstart() called on c401-054.stampede2.tacc.utexas.edu
*** at Sun Feb 28 00:44:09 2021

   => Loading Basis Set <=

    Name: AUG-CC-PVTZ
    Role: ORBITAL
    Keyword: BASIS
    atoms 1    entry BR         line  4208 file /home1/07844/xy3866/miniconda3/envs/p4env/share/psi4/basis/aug-cc-pvtz.gbs 
    atoms 2    entry CL         line   988 file /home1/07844/xy3866/miniconda3/envs/p4env/share/psi4/basis/aug-cc-pvtz.gbs 
    atoms 3-5  entry C          line   239 file /home1/07844/xy3866/miniconda3/envs/p4env/share/psi4/basis/aug-cc-pvtz.gbs 
    atoms 6-11 entry H          line    40 file /home1/07844/xy3866/miniconda3/envs/p4env/share/psi4/basis/aug-cc-pvtz.gbs 


         ---------------------------------------------------------
                                   SCF
               by Justin Turney, Rob Parrish, Andy Simmonett
                          and Daniel G. A. Smith
                              RHF Reference
                       32 Threads,  30517 MiB Core
         ---------------------------------------------------------

  ==> Geometry <==

    Molecular point group: c1
    Full point group: C1

    Geometry (in Angstrom), charge = 0, multiplicity = 1:

       Center              X                  Y                   Z               Mass       
    ------------   -----------------  -----------------  -----------------  -----------------
         BR           1.911487162863    -0.077995418431    -0.041495078927    78.918337600000
         CL          -3.092825837137    -0.575143418431    -0.096059078927    34.968852682000
         C           -0.777038837137     0.899436581569    -0.254078078927    12.000000000000
         C           -0.017383437137    -0.045677118431     0.480672821073    12.000000000000
         C           -2.226363837137     0.962045581569     0.203233921073    12.000000000000
         H           -0.339841837137     1.895981581569    -0.123545078927     1.007825032230
         H           -0.732539837137     0.660836581569    -1.320652078927     1.007825032230
         H            0.044933162863     0.110192581569     1.600587921073     1.007825032230
         H           -0.309456837137    -1.132319418431     0.372536921073     1.007825032230
         H           -2.297288837137     1.166983581569     1.273604921073     1.007825032230
         H           -2.765115837137     1.741272581569    -0.338137078927     1.007825032230

  Running in c1 symmetry.

  Rotational constants: A =      0.31609  B =      0.02360  C =      0.02260 [cm^-1]
  Rotational constants: A =   9476.22194  B =    707.65001  C =    677.38313 [MHz]
  Nuclear repulsion =  373.745460466794043

  Charge       = 0
  Multiplicity = 1
  Electrons    = 76
  Nalpha       = 38
  Nbeta        = 38

  ==> Algorithm <==

  SCF Algorithm Type is DF.
  DIIS enabled.
  MOM disabled.
  Fractional occupation disabled.
  Guess Type is SAD.
  Energy threshold   = 1.00e-10
  Density threshold  = 1.00e-10
  Integral threshold = 1.00e-12

  ==> Primary Basis <==

  Basis Set: AUG-CC-PVTZ
    Blend: AUG-CC-PVTZ
    Number of shells: 131
    Number of basis functions: 385
    Number of Cartesian functions: 443
    Spherical Harmonics?: true
    Max angular momentum: 3

   => Loading Basis Set <=

    Name: (AUG-CC-PVTZ AUX)
    Role: JKFIT
    Keyword: DF_BASIS_SCF
    atoms 1    entry BR         line  1492 file /home1/07844/xy3866/miniconda3/envs/p4env/share/psi4/basis/aug-cc-pvtz-jkfit.gbs 
    atoms 2    entry CL         line   816 file /home1/07844/xy3866/miniconda3/envs/p4env/share/psi4/basis/aug-cc-pvtz-jkfit.gbs 
    atoms 3-5  entry C          line   162 file /home1/07844/xy3866/miniconda3/envs/p4env/share/psi4/basis/aug-cc-pvtz-jkfit.gbs 
    atoms 6-11 entry H          line    70 file /home1/07844/xy3866/miniconda3/envs/p4env/share/psi4/basis/aug-cc-pvtz-jkfit.gbs 

  ==> Integral Setup <==

  DFHelper Memory: AOs need 1.134 GiB; user supplied 22.352 GiB. Using in-core AOs.

  ==> MemDFJK: Density-Fitted J/K Matrices <==

    J tasked:                   Yes
    K tasked:                   Yes
    wK tasked:                   No
    OpenMP threads:              32
    Memory [MiB]:             22888
    Algorithm:                 Core
    Schwarz Cutoff:           1E-12
    Mask sparsity (%):       2.1103
    Fitting Condition:        1E-10

   => Auxiliary Basis Set <=

  Basis Set: (AUG-CC-PVTZ AUX)
    Blend: AUG-CC-PVTZ-JKFIT
    Number of shells: 274
    Number of basis functions: 982
    Number of Cartesian functions: 1232
    Spherical Harmonics?: true
    Max angular momentum: 4

  Minimum eigenvalue in the overlap matrix is 1.3747024434E-05.
  Reciprocal condition number of the overlap matrix is 8.3942979851E-07.
    Using symmetric orthogonalization.

  ==> Pre-Iterations <==

  SCF Guess: Superposition of Atomic Densities via on-the-fly atomic UHF (no occupation information).

   -------------------------
    Irrep   Nso     Nmo    
   -------------------------
     A        385     385 
   -------------------------
    Total     385     385
   -------------------------

  ==> Iterations <==

                           Total Energy        Delta E     RMS |[F,P]|

   @DF-RHF iter SAD: -3147.20744505366338   -3.14721e+03   0.00000e+00 
   @DF-RHF iter   1: -3148.85738619346694   -1.64994e+00   2.66945e-03 DIIS
   @DF-RHF iter   2: -3149.07240155180989   -2.15015e-01   1.20400e-03 DIIS
   @DF-RHF iter   3: -3149.11525956492687   -4.28580e-02   1.03479e-04 DIIS
   @DF-RHF iter   4: -3149.11693939009592   -1.67983e-03   3.23915e-05 DIIS
   @DF-RHF iter   5: -3149.11705178323382   -1.12393e-04   1.04765e-05 DIIS
   @DF-RHF iter   6: -3149.11706410262150   -1.23194e-05   2.47502e-06 DIIS
   @DF-RHF iter   7: -3149.11706514203297   -1.03941e-06   7.78435e-07 DIIS
   @DF-RHF iter   8: -3149.11706526863281   -1.26600e-07   2.63713e-07 DIIS
   @DF-RHF iter   9: -3149.11706528656259   -1.79298e-08   1.04302e-07 DIIS
   @DF-RHF iter  10: -3149.11706528898821   -2.42562e-09   2.62711e-08 DIIS
   @DF-RHF iter  11: -3149.11706528913919   -1.50976e-10   7.12883e-09 DIIS
   @DF-RHF iter  12: -3149.11706528915329   -1.40972e-11   2.12343e-09 DIIS
   @DF-RHF iter  13: -3149.11706528915420   -9.09495e-13   7.88062e-10 DIIS
   @DF-RHF iter  14: -3149.11706528915101    3.18323e-12   2.19767e-10 DIIS
   @DF-RHF iter  15: -3149.11706528915374   -2.72848e-12   7.20932e-11 DIIS
  Energy and wave function converged.


  ==> Post-Iterations <==

    Orbital Energies [Eh]
    ---------------------

    Doubly Occupied:                                                      

       1A   -490.010777     2A   -104.835907     3A    -65.150583  
       4A    -58.505847     5A    -58.504523     6A    -58.504507  
       7A    -11.311336     8A    -11.304778     9A    -11.255846  
      10A    -10.560367    11A     -9.823119    12A     -8.027196  
      13A     -8.025413    14A     -8.025379    15A     -7.434363  
      16A     -7.428118    17A     -7.428024    18A     -3.177812  
      19A     -3.174659    20A     -3.174587    21A     -3.166480  
      22A     -3.166479    23A     -1.167130    24A     -1.095927  
      25A     -1.001301    26A     -0.904146    27A     -0.819205  
      28A     -0.678990    29A     -0.649927    30A     -0.616503  
      31A     -0.579997    32A     -0.548548    33A     -0.507161  
      34A     -0.476665    35A     -0.447004    36A     -0.444257  
      37A     -0.403949    38A     -0.398631  

    Virtual:                                                              

      39A      0.025778    40A      0.035629    41A      0.043257  
      42A      0.045390    43A      0.059127    44A      0.060994  
      45A      0.067065    46A      0.080151    47A      0.096436  
      48A      0.108272    49A      0.117839    50A      0.123890  
      51A      0.126156    52A      0.130908    53A      0.133221  
      54A      0.135541    55A      0.145304    56A      0.148821  
      57A      0.152896    58A      0.160453    59A      0.166090  
      60A      0.167420    61A      0.171655    62A      0.192053  
      63A      0.199389    64A      0.203778    65A      0.215860  
      66A      0.242886    67A      0.256046    68A      0.266483  
      69A      0.274955    70A      0.277203    71A      0.286995  
      72A      0.296953    73A      0.299410    74A      0.311627  
      75A      0.319725    76A      0.328600    77A      0.335192  
      78A      0.346310    79A      0.355153    80A      0.359472  
      81A      0.365463    82A      0.375307    83A      0.377666  
      84A      0.382276    85A      0.388434    86A      0.392551  
      87A      0.401056    88A      0.406180    89A      0.412883  
      90A      0.414034    91A      0.423540    92A      0.427749  
      93A      0.438485    94A      0.452938    95A      0.458441  
      96A      0.464241    97A      0.473687    98A      0.483359  
      99A      0.491120   100A      0.498340   101A      0.502417  
     102A      0.508792   103A      0.513402   104A      0.517011  
     105A      0.526753   106A      0.537081   107A      0.543163  
     108A      0.553657   109A      0.577223   110A      0.581247  
     111A      0.582929   112A      0.593893   113A      0.602792  
     114A      0.609022   115A      0.626450   116A      0.644169  
     117A      0.667369   118A      0.682036   119A      0.689079  
     120A      0.702171   121A      0.719598   122A      0.738801  
     123A      0.765574   124A      0.775450   125A      0.790449  
     126A      0.792484   127A      0.795810   128A      0.807458  
     129A      0.814932   130A      0.825194   131A      0.838811  
     132A      0.845985   133A      0.853905   134A      0.865037  
     135A      0.872742   136A      0.877172   137A      0.890728  
     138A      0.893312   139A      0.902978   140A      0.907710  
     141A      0.916196   142A      0.919339   143A      0.928342  
     144A      0.940542   145A      0.947006   146A      0.956078  
     147A      0.961721   148A      0.979461   149A      1.000554  
     150A      1.008408   151A      1.013035   152A      1.025343  
     153A      1.036550   154A      1.052803   155A      1.056722  
     156A      1.061563   157A      1.076938   158A      1.080992  
     159A      1.094106   160A      1.095108   161A      1.102496  
     162A      1.113585   163A      1.132224   164A      1.148568  
     165A      1.152510   166A      1.155038   167A      1.165797  
     168A      1.175088   169A      1.193610   170A      1.196741  
     171A      1.213611   172A      1.218316   173A      1.243611  
     174A      1.245223   175A      1.256358   176A      1.282405  
     177A      1.292583   178A      1.298733   179A      1.322634  
     180A      1.341268   181A      1.357922   182A      1.360890  
     183A      1.378199   184A      1.383466   185A      1.397335  
     186A      1.412711   187A      1.429504   188A      1.445754  
     189A      1.469365   190A      1.480537   191A      1.489144  
     192A      1.498734   193A      1.518148   194A      1.522519  
     195A      1.551399   196A      1.564616   197A      1.567359  
     198A      1.593396   199A      1.608559   200A      1.626838  
     201A      1.634814   202A      1.635625   203A      1.656422  
     204A      1.667224   205A      1.676103   206A      1.681806  
     207A      1.692781   208A      1.711250   209A      1.715569  
     210A      1.717725   211A      1.742171   212A      1.759652  
     213A      1.769744   214A      1.792752   215A      1.805906  
     216A      1.829239   217A      1.841636   218A      1.847902  
     219A      1.867614   220A      1.889873   221A      1.895354  
     222A      1.902777   223A      1.934833   224A      1.950119  
     225A      1.975594   226A      1.985683   227A      2.000162  
     228A      2.015551   229A      2.036957   230A      2.054379  
     231A      2.067660   232A      2.081321   233A      2.107030  
     234A      2.138500   235A      2.177494   236A      2.181785  
     237A      2.219595   238A      2.226665   239A      2.235745  
     240A      2.239898   241A      2.262276   242A      2.278758  
     243A      2.293349   244A      2.319754   245A      2.325739  
     246A      2.372237   247A      2.377933   248A      2.387100  
     249A      2.396407   250A      2.401876   251A      2.427380  
     252A      2.445838   253A      2.459511   254A      2.468871  
     255A      2.496907   256A      2.540972   257A      2.564626  
     258A      2.613049   259A      2.633144   260A      2.668784  
     261A      2.680888   262A      2.714269   263A      2.741209  
     264A      2.754417   265A      2.772842   266A      2.786352  
     267A      2.815440   268A      2.820546   269A      2.854695  
     270A      2.994513   271A      3.048043   272A      3.086544  
     273A      3.132362   274A      3.162050   275A      3.172546  
     276A      3.213691   277A      3.225098   278A      3.252010  
     279A      3.276142   280A      3.291434   281A      3.305241  
     282A      3.338863   283A      3.349245   284A      3.390340  
     285A      3.410131   286A      3.448146   287A      3.473947  
     288A      3.517041   289A      3.540707   290A      3.562636  
     291A      3.579670   292A      3.622291   293A      3.634053  
     294A      3.647904   295A      3.678723   296A      3.690960  
     297A      3.722600   298A      3.740740   299A      3.763219  
     300A      3.780120   301A      3.809162   302A      3.837643  
     303A      3.855118   304A      3.876698   305A      3.888833  
     306A      3.905774   307A      3.930463   308A      3.942642  
     309A      3.962181   310A      3.982105   311A      3.999959  
     312A      4.015738   313A      4.056449   314A      4.064750  
     315A      4.105262   316A      4.123677   317A      4.144687  
     318A      4.153256   319A      4.203771   320A      4.207143  
     321A      4.243328   322A      4.255564   323A      4.275779  
     324A      4.308511   325A      4.333006   326A      4.391862  
     327A      4.398033   328A      4.430577   329A      4.474479  
     330A      4.484983   331A      4.544789   332A      4.610153  
     333A      4.621902   334A      4.633108   335A      4.670780  
     336A      4.717838   337A      4.719653   338A      4.787932  
     339A      4.810518   340A      4.841094   341A      4.862692  
     342A      4.883538   343A      4.909317   344A      4.958180  
     345A      4.988220   346A      5.019882   347A      5.033866  
     348A      5.067207   349A      5.076193   350A      5.127435  
     351A      5.146480   352A      5.168199   353A      5.195725  
     354A      5.215509   355A      5.256301   356A      5.261866  
     357A      5.325261   358A      5.344985   359A      5.391871  
     360A      5.429331   361A      5.467276   362A      5.498584  
     363A      5.551397   364A      5.557824   365A      5.624883  
     366A      5.668385   367A      5.715057   368A      5.731050  
     369A      5.857158   370A      5.917571   371A      5.990108  
     372A      6.003641   373A      6.113344   374A      6.170171  
     375A      6.195907   376A      6.281985   377A      6.381549  
     378A      6.482997   379A      6.715693   380A      6.743829  
     381A      6.880266   382A      7.936038   383A     17.067354  
     384A     17.299088   385A     18.773756  

    Final Occupation by Irrep:
              A 
    DOCC [    38 ]

  @DF-RHF Final Energy: -3149.11706528915374

   => Energetics <=

    Nuclear Repulsion Energy =            373.7454604667940430
    One-Electron Energy =               -5120.2541633930350145
    Two-Electron Energy =                1597.3916376370877970
    Total Energy =                      -3149.1170652891532882

Computation Completed

*** tstop() called on c401-054.stampede2.tacc.utexas.edu at Sun Feb 28 00:44:38 2021
Module time:
	user time   =     257.74 seconds =       4.30 minutes
	system time =      21.60 seconds =       0.36 minutes
	total time  =         29 seconds =       0.48 minutes
Total time:
	user time   =     257.74 seconds =       4.30 minutes
	system time =      21.60 seconds =       0.36 minutes
	total time  =         29 seconds =       0.48 minutes
   => Loading Basis Set <=

    Name: (AUG-CC-PVTZ AUX)
    Role: RIFIT
    Keyword: DF_BASIS_MP2
    atoms 1    entry BR         line  1248 file /home1/07844/xy3866/miniconda3/envs/p4env/share/psi4/basis/aug-cc-pvtz-ri.gbs 
    atoms 2    entry CL         line   742 file /home1/07844/xy3866/miniconda3/envs/p4env/share/psi4/basis/aug-cc-pvtz-ri.gbs 
    atoms 3-5  entry C          line   148 file /home1/07844/xy3866/miniconda3/envs/p4env/share/psi4/basis/aug-cc-pvtz-ri.gbs 
    atoms 6-11 entry H          line    30 file /home1/07844/xy3866/miniconda3/envs/p4env/share/psi4/basis/aug-cc-pvtz-ri.gbs 


*** tstart() called on c401-054.stampede2.tacc.utexas.edu
*** at Sun Feb 28 00:44:38 2021


  //>>>>>>>>>>>>>>>>>>>>>>>>>>>>>>>>>>>//
  //               DFMP2               //
  //<<<<<<<<<<<<<<<<<<<<<<<<<<<<<<<<<<<//

	 --------------------------------------------------------
	                          DF-MP2                         
	      2nd-Order Density-Fitted Moller-Plesset Theory     
	              RMP2 Wavefunction,  32 Threads             
	                                                         
	        Rob Parrish, Justin Turney, Andy Simmonett,      
	           Ed Hohenstein, and C. David Sherrill          
	 --------------------------------------------------------

   => Auxiliary Basis Set <=

  Basis Set: (AUG-CC-PVTZ AUX)
    Blend: AUG-CC-PVTZ-RI
    Number of shells: 248
    Number of basis functions: 932
    Number of Cartesian functions: 1190
    Spherical Harmonics?: true
    Max angular momentum: 5

	 --------------------------------------------------------
	                 NBF =   385, NAUX =   932
	 --------------------------------------------------------
	   CLASS    FOCC     OCC    AOCC    AVIR     VIR    FVIR
	   PAIRS       0      38      38     347     347       0
	 --------------------------------------------------------

  DFHelper Memory: AOs need 1.147 GiB; user supplied 22.352 GiB. Using in-core AOs.


         ------------------------------------------------------------
                                     CPHF                           
                                  Rob Parrish                       
         ------------------------------------------------------------

  ==> Geometry <==

    Molecular point group: c1
    Full point group: C1

    Geometry (in Angstrom), charge = 0, multiplicity = 1:

       Center              X                  Y                   Z               Mass       
    ------------   -----------------  -----------------  -----------------  -----------------
         BR           1.911487162863    -0.077995418431    -0.041495078927    78.918337600000
         CL          -3.092825837137    -0.575143418431    -0.096059078927    34.968852682000
         C           -0.777038837137     0.899436581569    -0.254078078927    12.000000000000
         C           -0.017383437137    -0.045677118431     0.480672821073    12.000000000000
         C           -2.226363837137     0.962045581569     0.203233921073    12.000000000000
         H           -0.339841837137     1.895981581569    -0.123545078927     1.007825032230
         H           -0.732539837137     0.660836581569    -1.320652078927     1.007825032230
         H            0.044933162863     0.110192581569     1.600587921073     1.007825032230
         H           -0.309456837137    -1.132319418431     0.372536921073     1.007825032230
         H           -2.297288837137     1.166983581569     1.273604921073     1.007825032230
         H           -2.765115837137     1.741272581569    -0.338137078927     1.007825032230

  Nuclear repulsion =  373.745460466793986
  Reference energy  = -3149.117065289153743

  ==> Basis Set <==

  Basis Set: AUG-CC-PVTZ
    Blend: AUG-CC-PVTZ
    Number of shells: 131
    Number of basis functions: 385
    Number of Cartesian functions: 443
    Spherical Harmonics?: true
    Max angular momentum: 3

  ==> CGRSolver (by Rob Parrish) <==

   Number of roots    =         1
   Preconditioning    =    JACOBI
   Convergence cutoff =     1E-06
   Maximum iterations =       100

  ==> CPHFRHamiltonian (by Rob Parrish) <== 

  ==> MemDFJK: Density-Fitted J/K Matrices <==

    J tasked:                   Yes
    K tasked:                   Yes
    wK tasked:                   No
    OpenMP threads:              32
    Memory [MiB]:             22888
    Algorithm:                 Core
    Schwarz Cutoff:           1E-12
    Mask sparsity (%):       0.8973
    Fitting Condition:        1E-10

   => Auxiliary Basis Set <=

  Basis Set: (AUG-CC-PVTZ AUX)
    Blend: AUG-CC-PVTZ-JKFIT
    Number of shells: 274
    Number of basis functions: 982
    Number of Cartesian functions: 1232
    Spherical Harmonics?: true
    Max angular momentum: 4

  ==> CPHF Iterations <==

  => Iterations <=

             Iter  Converged  Remaining    Residual
  CGR           1          0          1   8.965E-02
  CGR           2          0          1   2.563E-02
  CGR           3          0          1   5.588E-03
  CGR           4          0          1   1.477E-03
  CGR           5          0          1   5.305E-04
  CGR           6          0          1   2.004E-04
  CGR           7          0          1   5.446E-05
  CGR           8          0          1   1.293E-05
  CGR           9          0          1   4.489E-06
  CGR          10          0          1   1.255E-06
  CGR          11          1          0   3.610E-07

    CGRSolver converged.

	-----------------------------------------------------------
	 ==================> DF-MP2 Energies <==================== 
	-----------------------------------------------------------
	 Reference Energy          =   -3149.1170652891537429 [Eh]
	 Singles Energy            =      -0.0000000000000000 [Eh]
	 Same-Spin Energy          =      -0.2768885346222996 [Eh]
	 Opposite-Spin Energy      =      -0.8338520136068736 [Eh]
	 Correlation Energy        =      -1.1107405482291730 [Eh]
	 Total Energy              =   -3150.2278058373831300 [Eh]
	-----------------------------------------------------------
	 ================> DF-SCS-MP2 Energies <================== 
	-----------------------------------------------------------
	 SCS Same-Spin Scale       =       0.3333333333333333 [-]
	 SCS Opposite-Spin Scale   =       1.2000000000000000 [-]
	 SCS Same-Spin Energy      =      -0.0922961782074332 [Eh]
	 SCS Opposite-Spin Energy  =      -1.0006224163282482 [Eh]
	 SCS Correlation Energy    =      -1.0929185945356814 [Eh]
	 SCS Total Energy          =   -3150.2099838836893468 [Eh]
	-----------------------------------------------------------



Properties will be evaluated at   0.000000,   0.000000,   0.000000 [a0]

Properties computed using the MP2 density matrix

  Nuclear Dipole Moment: [e a0]
     X:   -19.2752      Y:     5.3489      Z:     1.8104

  Electronic Dipole Moment: [e a0]
     X:    18.8370      Y:    -4.6821      Z:    -1.5415

  Dipole Moment: [e a0]
     X:    -0.4382      Y:     0.6668      Z:     0.2690     Total:     0.8420

  Dipole Moment: [D]
     X:    -1.1139      Y:     1.6948      Z:     0.6836     Total:     2.1402


*** tstop() called on c401-054.stampede2.tacc.utexas.edu at Sun Feb 28 00:49:37 2021
Module time:
	user time   =     820.33 seconds =      13.67 minutes
	system time =      23.23 seconds =       0.39 minutes
	total time  =        299 seconds =       4.98 minutes
Total time:
	user time   =    1079.33 seconds =      17.99 minutes
	system time =      44.91 seconds =       0.75 minutes
	total time  =        328 seconds =       5.47 minutes

    Psi4 stopped on: Sunday, 28 February 2021 12:49AM
    Psi4 wall time for execution: 0:05:28.83

*** Psi4 exiting successfully. Buy a developer a beer!
