6363                                                                    
Freq      RMP2-FC                                                     6-31G(d)            
Number of atoms                            I               13
Info1-9                                    I   N=           9
          25          23        1002           0           0         100
           6           2           1
Charge                                     I                0
Multiplicity                               I                1
Number of electrons                        I               34
Number of alpha electrons                  I               17
Number of beta electrons                   I               17
Number of basis functions                  I               78
Number of independent functions            I               78
Number of point charges in /Mol/           I                0
Number of translation vectors              I                0
Atomic numbers                             I   N=          13
           7           6           6           6           1           1
           1           1           1           1           1           1
           1
Nuclear charges                            R   N=          13
  7.00000000E+00  6.00000000E+00  6.00000000E+00  6.00000000E+00  1.00000000E+00
  1.00000000E+00  1.00000000E+00  1.00000000E+00  1.00000000E+00  1.00000000E+00
  1.00000000E+00  1.00000000E+00  1.00000000E+00
Current cartesian coordinates              R   N=          39
 -2.77624379E-01  2.69040103E+00  1.02997349E-01 -3.11824328E-03  4.79849138E-02
 -7.06527687E-01 -2.12842095E+00 -1.68404895E+00  2.07337604E-01  2.57114721E+00
 -9.02690828E-01  1.60088668E-01 -2.33559067E-02  7.37776491E-02 -2.78010655E+00
 -1.89241519E+00 -3.61653812E+00 -4.94663124E-01 -2.15065685E+00 -1.75215042E+00
  2.27744449E+00 -3.97107966E+00 -9.92113704E-01 -4.31735025E-01  4.06238337E+00
  3.44909090E-01 -5.31948683E-01  2.92568783E+00 -2.82209303E+00 -5.20736815E-01
  2.66209807E+00 -9.35776124E-01  2.22964192E+00 -3.12118495E-01  2.74137246E+00
  2.03239258E+00 -1.99482065E+00  3.35833422E+00 -4.66661748E-01
Force Field                                I                0
Int Atom Types                             I   N=          13
           0           0           0           0           0           0
           0           0           0           0           0           0
           0
MM charges                                 R   N=          13
  0.00000000E+00  0.00000000E+00  0.00000000E+00  0.00000000E+00  0.00000000E+00
  0.00000000E+00  0.00000000E+00  0.00000000E+00  0.00000000E+00  0.00000000E+00
  0.00000000E+00  0.00000000E+00  0.00000000E+00
Integer atomic weights                     I   N=          13
          14          12          12          12           1           1
           1           1           1           1           1           1
           1
Real atomic weights                        R   N=          13
  1.40030740E+01  1.20000000E+01  1.20000000E+01  1.20000000E+01  1.00782504E+00
  1.00782504E+00  1.00782504E+00  1.00782504E+00  1.00782504E+00  1.00782504E+00
  1.00782504E+00  1.00782504E+00  1.00782504E+00
Atom fragment info                         I   N=          13
           0           0           0           0           0           0
           0           0           0           0           0           0
           0
Atom residue num                           I   N=          13
           0           0           0           0           0           0
           0           0           0           0           0           0
           0
Nuclear spins                              I   N=          13
           2           0           0           0           1           1
           1           1           1           1           1           1
           1
Nuclear ZEff                               R   N=          13
 -4.55000000E+00 -3.60000000E+00 -3.60000000E+00 -3.60000000E+00 -1.00000000E+00
 -1.00000000E+00 -1.00000000E+00 -1.00000000E+00 -1.00000000E+00 -1.00000000E+00
 -1.00000000E+00 -1.00000000E+00 -1.00000000E+00
Nuclear QMom                               R   N=          13
  2.04400000E+00  0.00000000E+00  0.00000000E+00  0.00000000E+00  0.00000000E+00
  0.00000000E+00  0.00000000E+00  0.00000000E+00  0.00000000E+00  0.00000000E+00
  0.00000000E+00  0.00000000E+00  0.00000000E+00
Nuclear GFac                               R   N=          13
  4.03761000E-01  0.00000000E+00  0.00000000E+00  0.00000000E+00  2.79284600E+00
  2.79284600E+00  2.79284600E+00  2.79284600E+00  2.79284600E+00  2.79284600E+00
  2.79284600E+00  2.79284600E+00  2.79284600E+00
MicOpt                                     I   N=          13
          -1          -1          -1          -1          -1          -1
          -1          -1          -1          -1          -1          -1
          -1
Number of contracted shells                I               34
Number of primitive shells                 I               80
Pure/Cartesian d shells                    I                1
Pure/Cartesian f shells                    I                0
Highest angular momentum                   I                2
Largest degree of contraction              I                6
Shell types                                I   N=          34
           0          -1          -1           2           0          -1
          -1           2           0          -1          -1           2
           0          -1          -1           2           0           0
           0           0           0           0           0           0
           0           0           0           0           0           0
           0           0           0           0
Number of primitives per shell             I   N=          34
           6           3           1           1           6           3
           1           1           6           3           1           1
           6           3           1           1           3           1
           3           1           3           1           3           1
           3           1           3           1           3           1
           3           1           3           1
Shell to atom map                          I   N=          34
           1           1           1           1           2           2
           2           2           3           3           3           3
           4           4           4           4           5           5
           6           6           7           7           8           8
           9           9          10          10          11          11
          12          12          13          13
Primitive exponents                        R   N=          80
  4.17351146E+03  6.27457911E+02  1.42902093E+02  4.02343293E+01  1.28202129E+01
  4.39043701E+00  1.16263619E+01  2.71627981E+00  7.72218397E-01  2.12031498E-01
  8.00000000E-01  3.04752488E+03  4.57369518E+02  1.03948685E+02  2.92101553E+01
  9.28666296E+00  3.16392696E+00  7.86827235E+00  1.88128854E+00  5.44249258E-01
  1.68714478E-01  8.00000000E-01  3.04752488E+03  4.57369518E+02  1.03948685E+02
  2.92101553E+01  9.28666296E+00  3.16392696E+00  7.86827235E+00  1.88128854E+00
  5.44249258E-01  1.68714478E-01  8.00000000E-01  3.04752488E+03  4.57369518E+02
  1.03948685E+02  2.92101553E+01  9.28666296E+00  3.16392696E+00  7.86827235E+00
  1.88128854E+00  5.44249258E-01  1.68714478E-01  8.00000000E-01  1.87311370E+01
  2.82539436E+00  6.40121692E-01  1.61277759E-01  1.87311370E+01  2.82539436E+00
  6.40121692E-01  1.61277759E-01  1.87311370E+01  2.82539436E+00  6.40121692E-01
  1.61277759E-01  1.87311370E+01  2.82539436E+00  6.40121692E-01  1.61277759E-01
  1.87311370E+01  2.82539436E+00  6.40121692E-01  1.61277759E-01  1.87311370E+01
  2.82539436E+00  6.40121692E-01  1.61277759E-01  1.87311370E+01  2.82539436E+00
  6.40121692E-01  1.61277759E-01  1.87311370E+01  2.82539436E+00  6.40121692E-01
  1.61277759E-01  1.87311370E+01  2.82539436E+00  6.40121692E-01  1.61277759E-01
Contraction coefficients                   R   N=          80
  1.83477216E-03  1.39946270E-02  6.85865518E-02  2.32240873E-01  4.69069948E-01
  3.60455199E-01 -1.14961182E-01 -1.69117479E-01  1.14585195E+00  1.00000000E+00
  1.00000000E+00  1.83473713E-03  1.40373228E-02  6.88426223E-02  2.32184443E-01
  4.67941348E-01  3.62311985E-01 -1.19332420E-01 -1.60854152E-01  1.14345644E+00
  1.00000000E+00  1.00000000E+00  1.83473713E-03  1.40373228E-02  6.88426223E-02
  2.32184443E-01  4.67941348E-01  3.62311985E-01 -1.19332420E-01 -1.60854152E-01
  1.14345644E+00  1.00000000E+00  1.00000000E+00  1.83473713E-03  1.40373228E-02
  6.88426223E-02  2.32184443E-01  4.67941348E-01  3.62311985E-01 -1.19332420E-01
 -1.60854152E-01  1.14345644E+00  1.00000000E+00  1.00000000E+00  3.34946043E-02
  2.34726953E-01  8.13757326E-01  1.00000000E+00  3.34946043E-02  2.34726953E-01
  8.13757326E-01  1.00000000E+00  3.34946043E-02  2.34726953E-01  8.13757326E-01
  1.00000000E+00  3.34946043E-02  2.34726953E-01  8.13757326E-01  1.00000000E+00
  3.34946043E-02  2.34726953E-01  8.13757326E-01  1.00000000E+00  3.34946043E-02
  2.34726953E-01  8.13757326E-01  1.00000000E+00  3.34946043E-02  2.34726953E-01
  8.13757326E-01  1.00000000E+00  3.34946043E-02  2.34726953E-01  8.13757326E-01
  1.00000000E+00  3.34946043E-02  2.34726953E-01  8.13757326E-01  1.00000000E+00
P(S=P) Contraction coefficients            R   N=          80
  0.00000000E+00  0.00000000E+00  0.00000000E+00  0.00000000E+00  0.00000000E+00
  0.00000000E+00  6.75797439E-02  3.23907296E-01  7.40895140E-01  1.00000000E+00
  0.00000000E+00  0.00000000E+00  0.00000000E+00  0.00000000E+00  0.00000000E+00
  0.00000000E+00  0.00000000E+00  6.89990666E-02  3.16423961E-01  7.44308291E-01
  1.00000000E+00  0.00000000E+00  0.00000000E+00  0.00000000E+00  0.00000000E+00
  0.00000000E+00  0.00000000E+00  0.00000000E+00  6.89990666E-02  3.16423961E-01
  7.44308291E-01  1.00000000E+00  0.00000000E+00  0.00000000E+00  0.00000000E+00
  0.00000000E+00  0.00000000E+00  0.00000000E+00  0.00000000E+00  6.89990666E-02
  3.16423961E-01  7.44308291E-01  1.00000000E+00  0.00000000E+00  0.00000000E+00
  0.00000000E+00  0.00000000E+00  0.00000000E+00  0.00000000E+00  0.00000000E+00
  0.00000000E+00  0.00000000E+00  0.00000000E+00  0.00000000E+00  0.00000000E+00
  0.00000000E+00  0.00000000E+00  0.00000000E+00  0.00000000E+00  0.00000000E+00
  0.00000000E+00  0.00000000E+00  0.00000000E+00  0.00000000E+00  0.00000000E+00
  0.00000000E+00  0.00000000E+00  0.00000000E+00  0.00000000E+00  0.00000000E+00
  0.00000000E+00  0.00000000E+00  0.00000000E+00  0.00000000E+00  0.00000000E+00
  0.00000000E+00  0.00000000E+00  0.00000000E+00  0.00000000E+00  0.00000000E+00
Coordinates of each shell                  R   N=         102
 -2.77624379E-01  2.69040103E+00  1.02997349E-01 -2.77624379E-01  2.69040103E+00
  1.02997349E-01 -2.77624379E-01  2.69040103E+00  1.02997349E-01 -2.77624379E-01
  2.69040103E+00  1.02997349E-01 -3.11824328E-03  4.79849138E-02 -7.06527687E-01
 -3.11824328E-03  4.79849138E-02 -7.06527687E-01 -3.11824328E-03  4.79849138E-02
 -7.06527687E-01 -3.11824328E-03  4.79849138E-02 -7.06527687E-01 -2.12842095E+00
 -1.68404895E+00  2.07337604E-01 -2.12842095E+00 -1.68404895E+00  2.07337604E-01
 -2.12842095E+00 -1.68404895E+00  2.07337604E-01 -2.12842095E+00 -1.68404895E+00
  2.07337604E-01  2.57114721E+00 -9.02690828E-01  1.60088668E-01  2.57114721E+00
 -9.02690828E-01  1.60088668E-01  2.57114721E+00 -9.02690828E-01  1.60088668E-01
  2.57114721E+00 -9.02690828E-01  1.60088668E-01 -2.33559067E-02  7.37776491E-02
 -2.78010655E+00 -2.33559067E-02  7.37776491E-02 -2.78010655E+00 -1.89241519E+00
 -3.61653812E+00 -4.94663124E-01 -1.89241519E+00 -3.61653812E+00 -4.94663124E-01
 -2.15065685E+00 -1.75215042E+00  2.27744449E+00 -2.15065685E+00 -1.75215042E+00
  2.27744449E+00 -3.97107966E+00 -9.92113704E-01 -4.31735025E-01 -3.97107966E+00
 -9.92113704E-01 -4.31735025E-01  4.06238337E+00  3.44909090E-01 -5.31948683E-01
  4.06238337E+00  3.44909090E-01 -5.31948683E-01  2.92568783E+00 -2.82209303E+00
 -5.20736815E-01  2.92568783E+00 -2.82209303E+00 -5.20736815E-01  2.66209807E+00
 -9.35776124E-01  2.22964192E+00  2.66209807E+00 -9.35776124E-01  2.22964192E+00
 -3.12118495E-01  2.74137246E+00  2.03239258E+00 -3.12118495E-01  2.74137246E+00
  2.03239258E+00 -1.99482065E+00  3.35833422E+00 -4.66661748E-01 -1.99482065E+00
  3.35833422E+00 -4.66661748E-01
Constraint Structure                       R   N=          39
 -2.77624379E-01  2.69040103E+00  1.02997349E-01 -3.11824328E-03  4.79849138E-02
 -7.06527687E-01 -2.12842095E+00 -1.68404895E+00  2.07337604E-01  2.57114721E+00
 -9.02690828E-01  1.60088668E-01 -2.33559067E-02  7.37776491E-02 -2.78010655E+00
 -1.89241519E+00 -3.61653812E+00 -4.94663124E-01 -2.15065685E+00 -1.75215042E+00
  2.27744449E+00 -3.97107966E+00 -9.92113704E-01 -4.31735025E-01  4.06238337E+00
  3.44909090E-01 -5.31948683E-01  2.92568783E+00 -2.82209303E+00 -5.20736815E-01
  2.66209807E+00 -9.35776124E-01  2.22964192E+00 -3.12118495E-01  2.74137246E+00
  2.03239258E+00 -1.99482065E+00  3.35833422E+00 -4.66661748E-01
Num ILSW                                   I              100
ILSW                                       I   N=         100
           0           1           0           0           2           0
           0           0           0           0           0          -1
           0           0           0           0           0           0
           0           0           0           0           1           0
           1           0           0           0           0           0
           0           0      100000           0          -1           0
           0           0           0           0           0           0
           0           0           0           1           1           0
           0           0           1           0           0           0
           0           0           4          40           0           0
           0           0           0           0           0           0
           0           0           0           0           0           0
           0           0           0           0           0           0
           0           0           0           0           0           0
           0           0           0           0           0           0
           0           0           0           0           0           0
           0           0           0           0
Num RLSW                                   I               40
RLSW                                       R   N=          40
  1.00000000E+00  1.00000000E+00  1.00000000E+00  1.00000000E+00  1.00000000E+00
  0.00000000E+00  0.00000000E+00  1.00000000E+00  0.00000000E+00  0.00000000E+00
  0.00000000E+00  0.00000000E+00  1.00000000E+00  0.00000000E+00  0.00000000E+00
  0.00000000E+00  0.00000000E+00  1.00000000E+00  0.00000000E+00  0.00000000E+00
  0.00000000E+00  0.00000000E+00  1.00000000E+00  0.00000000E+00  0.00000000E+00
  0.00000000E+00  0.00000000E+00  1.00000000E+00  0.00000000E+00  0.00000000E+00
  0.00000000E+00  0.00000000E+00  0.00000000E+00  0.00000000E+00  0.00000000E+00
  0.00000000E+00  0.00000000E+00  0.00000000E+00  1.00000000E+00  1.00000000E+00
MxBond                                     I                4
NBond                                      I   N=          13
           3           4           4           4           1           1
           1           1           1           1           1           1
           1
IBond                                      I   N=          52
           2          12          13           0           1           3
           4           5           2           6           7           8
           2           9          10          11           2           0
           0           0           3           0           0           0
           3           0           0           0           3           0
           0           0           4           0           0           0
           4           0           0           0           4           0
           0           0           1           0           0           0
           1           0           0           0
RBond                                      R   N=          52
  1.00000000E+00  1.00000000E+00  1.00000000E+00  0.00000000E+00  1.00000000E+00
  1.00000000E+00  1.00000000E+00  1.00000000E+00  1.00000000E+00  1.00000000E+00
  1.00000000E+00  1.00000000E+00  1.00000000E+00  1.00000000E+00  1.00000000E+00
  1.00000000E+00  1.00000000E+00  0.00000000E+00  0.00000000E+00  0.00000000E+00
  1.00000000E+00  0.00000000E+00  0.00000000E+00  0.00000000E+00  1.00000000E+00
  0.00000000E+00  0.00000000E+00  0.00000000E+00  1.00000000E+00  0.00000000E+00
  0.00000000E+00  0.00000000E+00  1.00000000E+00  0.00000000E+00  0.00000000E+00
  0.00000000E+00  1.00000000E+00  0.00000000E+00  0.00000000E+00  0.00000000E+00
  1.00000000E+00  0.00000000E+00  0.00000000E+00  0.00000000E+00  1.00000000E+00
  0.00000000E+00  0.00000000E+00  0.00000000E+00  1.00000000E+00  0.00000000E+00
  0.00000000E+00  0.00000000E+00
Virial Ratio                               R      2.001585538105018E+00
SCF Energy                                 R     -1.732840456797719E+02
MP2 Energy                                 R     -1.738459857834785E+02
Total Energy                               R     -1.738459857834785E+02
Post-SCF wavefunction norm                 R      1.537401746625637E+00
RMS Force                                  R      1.765999263150166E-06
RMS Density                                R      1.011069206166210E-09
External E-field                           R   N=          35
  0.00000000E+00  0.00000000E+00  0.00000000E+00  0.00000000E+00  0.00000000E+00
  0.00000000E+00  0.00000000E+00  0.00000000E+00  0.00000000E+00  0.00000000E+00
  0.00000000E+00  0.00000000E+00  0.00000000E+00  0.00000000E+00  0.00000000E+00
  0.00000000E+00  0.00000000E+00  0.00000000E+00  0.00000000E+00  0.00000000E+00
  0.00000000E+00  0.00000000E+00  0.00000000E+00  0.00000000E+00  0.00000000E+00
  0.00000000E+00  0.00000000E+00  0.00000000E+00  0.00000000E+00  0.00000000E+00
  0.00000000E+00  0.00000000E+00  0.00000000E+00  0.00000000E+00  0.00000000E+00
IOpCl                                      I                0
IROHF                                      I                0
Alpha Orbital Energies                     R   N=          78
 -1.55383320E+01 -1.12510571E+01 -1.12141685E+01 -1.12090850E+01 -1.17992838E+00
 -1.01059862E+00 -9.30937279E-01 -7.86680981E-01 -6.63271968E-01 -6.07557707E-01
 -5.93462831E-01 -5.60570538E-01 -5.35552141E-01 -5.08104383E-01 -4.82974215E-01
 -4.70046116E-01 -3.85115388E-01  2.14418556E-01  2.71273400E-01  2.79810796E-01
  2.97688016E-01  3.04400086E-01  3.22323147E-01  3.34510619E-01  3.51356273E-01
  3.66921809E-01  4.00560885E-01  4.35544647E-01  4.54171638E-01  7.16430093E-01
  7.36906652E-01  7.63029464E-01  7.79740412E-01  7.90174910E-01  9.17835706E-01
  9.60635517E-01  9.78203772E-01  9.84706239E-01  1.01731277E+00  1.08077713E+00
  1.13560539E+00  1.16005038E+00  1.16808696E+00  1.17782034E+00  1.18619594E+00
  1.20659744E+00  1.23292777E+00  1.23713066E+00  1.25045439E+00  1.26236577E+00
  1.28688905E+00  1.61783869E+00  1.67612152E+00  1.71534490E+00  1.77102203E+00
  1.88175011E+00  2.02797048E+00  2.07687599E+00  2.10789560E+00  2.27142642E+00
  2.30182020E+00  2.34185848E+00  2.37228598E+00  2.43930811E+00  2.49983702E+00
  2.53825561E+00  2.58275011E+00  2.59441191E+00  2.70518159E+00  2.84863585E+00
  2.85528797E+00  2.92521522E+00  3.06394692E+00  3.11571954E+00  4.21172008E+00
  4.62025985E+00  4.71601075E+00  4.95470931E+00
Alpha MO coefficients                      R   N=        6084
  9.95050205E-01  2.48419386E-02 -1.14268489E-03 -8.30106936E-04  5.64432867E-04
 -2.67125396E-03  8.32359884E-04  9.29151342E-04 -3.39801133E-04 -3.22349612E-03
 -3.36193184E-03 -3.32691618E-03  9.17807284E-05 -8.04464933E-05 -5.92866803E-05
 -2.34757271E-05  1.58069917E-04 -1.81362059E-05  2.56126620E-04  6.01043247E-05
  1.57835480E-03 -2.08159087E-04  4.39987891E-04  3.54822674E-04 -8.80100178E-05
 -1.77954727E-04 -1.11567895E-04  4.14780537E-06 -5.55913033E-06 -2.06167445E-05
 -2.62196780E-05 -7.94618645E-05 -3.44226285E-05 -1.21180759E-04 -1.19141932E-05
  8.50575972E-05 -1.48387010E-04  2.00095387E-04  1.32534561E-04 -6.33805932E-05
 -7.04527181E-05 -6.57432798E-05 -1.16784678E-05 -1.05249491E-05  1.62700134E-06
 -7.51816305E-06 -1.46841780E-05  3.71389024E-05 -3.37834512E-05  1.00105289E-05
 -5.40426796E-05  1.25920384E-04 -4.42787196E-05 -5.38448008E-05 -4.21696841E-05
 -1.62139019E-05 -2.83630573E-05  1.52829963E-05  1.61288075E-05  1.43066752E-05
 -6.19020178E-05 -8.58444382E-05  1.15730144E-05  1.91674552E-04 -2.62590529E-05
 -1.55937300E-04 -2.95272863E-05 -1.65640623E-04  5.07651917E-06 -9.45694249E-05
 -1.09728398E-05  1.69447776E-05  1.87521557E-05 -4.97898307E-05  3.07856316E-04
  6.16542562E-04  3.12233258E-04  6.15947351E-04 -2.32693151E-04 -4.14261476E-05
  2.82991964E-06 -4.68009757E-05  2.12988366E-05  3.99478833E-03  8.41601493E-05
 -1.55051896E-03 -4.01695088E-04 -1.62995517E-04 -5.68899906E-04 -1.73189232E-04
  6.22274962E-05  3.24859653E-05 -2.17491645E-04  9.95966404E-01  2.82643528E-02
 -4.01488005E-05  2.61757775E-04  2.48238518E-04 -1.95373251E-02 -2.02115680E-04
  1.31004649E-04 -1.26566401E-03 -1.34608692E-03 -1.31830077E-03 -1.24157191E-03
 -1.37443497E-06  1.65740203E-05 -2.65034855E-06  7.95227832E-03  2.05915455E-04
  1.27712254E-04  6.00787356E-05 -3.14574940E-05  4.73484192E-03  1.55806011E-03
  1.52742584E-03 -4.38553791E-04 -3.03153738E-04 -2.58250810E-04 -1.63647095E-04
 -1.39552080E-04  1.30933535E-04  1.02721263E-04  7.17901592E-03  1.85153305E-04
 -1.48088227E-04  3.24324909E-05 -2.21746013E-05  4.89094294E-03 -2.02619251E-03
  8.68681300E-04 -5.14748468E-04 -3.65384767E-04 -1.87576327E-04 -1.47063048E-04
  1.00599777E-04 -1.39412439E-04  5.28117574E-05  3.13148878E-04  2.73560972E-03
 -1.29880768E-04  4.81759604E-05 -2.11156176E-04 -3.89013476E-05 -1.81236446E-04
 -9.61145145E-05 -1.70390163E-04 -8.34818859E-05 -1.38564277E-04 -3.20784447E-05
 -2.01664987E-04  8.59491395E-06 -9.48131987E-05  2.47358205E-04 -1.04089621E-04
  5.55502071E-05 -5.37313968E-05 -2.50585191E-04  5.16404161E-05  8.17605511E-05
 -1.87261228E-05  9.94372326E-04 -1.26711091E-04 -2.74937804E-04  1.04005585E-04
 -1.19890359E-04 -7.64160020E-05 -1.53735813E-04  2.79839015E-05 -4.63919202E-05
 -3.23135648E-06 -8.22210529E-03 -1.72579218E-05 -5.68418531E-05 -6.98147533E-05
  1.54704279E-05  2.61861614E-03 -1.35239391E-03 -1.01350062E-03  1.48569736E-04
 -2.91617207E-04 -2.48830750E-04 -1.11333410E-04 -1.30596324E-04  8.24866764E-05
  6.89817292E-05  9.95713192E-01  2.84586095E-02  2.80456907E-06 -2.55653204E-05
  5.08388692E-05 -1.48721634E-02 -5.12183373E-04 -2.53435447E-04  4.88936315E-05
 -1.82831513E-03 -1.81173134E-03 -1.82822069E-03 -1.37001697E-05  2.31605954E-05
  1.72689707E-05 -2.06015510E-03 -3.44110678E-04  1.02331742E-04  6.51555280E-05
 -3.26316362E-05  9.93724802E-04 -5.79049375E-04 -3.30195641E-04  2.45246191E-04
  8.50500111E-06 -6.84974314E-05 -8.46588933E-05  1.05022691E-05 -7.27879959E-06
 -2.27673131E-05 -1.33633475E-04 -1.87345369E-05  1.29037704E-04  2.57043672E-03
  1.40410829E-04  2.66854633E-03  1.05112230E-04  2.46463265E-03 -4.49396506E-06
  3.96883545E-04 -7.17869269E-05 -3.00351003E-04 -8.04299554E-05 -3.22368312E-04
 -1.14731422E-04 -1.21853134E-04 -8.55598922E-05 -1.53193334E-04 -3.10785588E-05
 -2.08636412E-04 -7.08532225E-05  7.30538814E-05 -3.62154670E-05  5.37690704E-04
  3.30152903E-04 -4.26520539E-04  2.94700427E-04 -5.92421386E-05 -1.02474772E-05
 -8.96979670E-05 -8.55138260E-05  4.44519510E-05  3.08984377E-06 -7.47967074E-03
  2.35979469E-05  7.36429363E-05 -5.02112593E-05  1.49673854E-05  2.71686228E-03
  1.52271916E-03 -5.42537710E-04  4.82256998E-05 -3.75261876E-04 -1.96528848E-04
 -1.06261421E-04  8.57220175E-05 -1.07813543E-04  1.91677675E-05  1.90033790E-03
 -2.40179260E-04 -1.21815902E-04  3.13010139E-05 -3.20168530E-05  9.59965748E-04
  6.70950211E-04 -1.56811422E-04  2.78609882E-04 -1.40974396E-06 -8.12248891E-05
 -9.45338139E-05  2.14681356E-05  1.78365893E-05 -1.24900121E-05  9.95722501E-01
  2.85086483E-02 -1.25286568E-04 -2.52472583E-05  6.76408648E-05 -1.49493006E-02
  7.06960327E-04 -1.72571310E-04 -1.62916027E-05 -1.82121639E-03 -1.79157046E-03
 -1.82001314E-03  1.23660243E-05 -3.25967699E-05  8.69391265E-06 -1.45415286E-04
 -4.89027360E-05 -6.92321834E-05 -3.09770315E-04 -9.20050606E-05 -3.23358711E-04
  9.60028980E-06  3.78428478E-04  1.40331130E-04  2.41782623E-03  1.23478481E-04
  2.50739050E-03  1.53104975E-04  2.71450241E-03 -1.18421142E-04 -1.68676948E-04
  4.10511051E-05  3.03782756E-04 -1.67003263E-01  3.45181575E-01 -4.32468399E-02
 -6.55947331E-02  1.64916051E-02  3.53589946E-01 -2.70947071E-02 -2.99898551E-02
  1.21492574E-02  4.37605727E-03  7.41039225E-03  9.21202482E-03 -5.78925896E-03
  3.72049323E-03  2.24467905E-03 -1.07517738E-01  2.00264874E-01 -9.64665631E-03
  6.97870733E-02  3.31742382E-02  1.23479466E-01 -5.75801568E-03 -4.81280728E-04
  5.15416642E-03 -1.68708192E-03  1.59357292E-02  1.88498604E-04 -3.06159043E-03
 -7.03878117E-04  7.16335880E-03 -4.12220841E-02  7.85809388E-02  2.62209806E-02
  2.87509831E-02 -7.84199637E-03  4.34307166E-02  1.69349702E-03  5.97023650E-04
 -1.45893662E-03  4.24929305E-03  3.16296311E-03  9.98650239E-04  4.03123410E-03
 -1.57892112E-03 -1.70801555E-03 -4.13347150E-02  7.69353311E-02 -3.50879611E-02
  1.87745746E-02 -7.13376894E-03  5.29530478E-02 -4.58602848E-03  2.98555998E-03
 -2.76728322E-03  6.23475991E-03  9.77511497E-04  6.20781200E-04 -3.16273428E-03
  1.98824541E-03 -1.09897448E-03  4.81457830E-02  6.61108259E-03  1.68411004E-02
  1.31722223E-04  2.11634623E-02  5.62554223E-03  2.04061861E-02  5.14832611E-03
  1.95879619E-02  2.39626488E-03  1.65287828E-02  3.24738500E-04  2.06458253E-02
  5.57907235E-03  1.05393070E-01  2.36430542E-03  1.03666075E-01  2.47461131E-03
 -9.86866660E-02  2.03885091E-01 -5.31561375E-02  4.20748649E-02  3.57228707E-02
  2.55632681E-01 -2.95212826E-02  9.03384592E-03  2.02629198E-02  6.63908280E-03
 -8.37278397E-03  8.79159362E-03 -4.89718299E-03  2.46874168E-03 -1.58971271E-03
  8.95004230E-02 -1.69436647E-01 -2.15343654E-02  1.19060402E-01 -4.95179530E-03
 -1.60727918E-01 -1.55139638E-03  2.65162109E-02 -5.66456908E-03 -1.28459731E-02
  9.60133104E-03 -3.23531415E-03 -4.51707021E-03 -1.75806889E-03  9.47864351E-03
  1.08532623E-01 -2.01244279E-01 -3.65217497E-02 -1.01635797E-02  1.19952317E-02
 -1.78288299E-01 -2.44436352E-03  1.96914459E-03  1.04435696E-03 -6.52789275E-03
 -4.38476396E-03 -3.97403972E-03 -1.93415047E-03  1.41402185E-03  3.53015817E-04
  1.06602616E-01 -1.98214992E-01  4.04328666E-02  1.14775226E-03  1.16625996E-02
 -1.75089270E-01  2.79404978E-03  5.19775146E-03  2.37825418E-03 -7.45932809E-03
 -3.41476698E-03 -3.83243405E-03  6.69446375E-04 -1.57659978E-03 -1.56800450E-04
 -5.52082829E-02 -1.08994545E-02 -7.03425962E-02 -1.62455553E-02 -6.53207445E-02
 -1.35246718E-02 -5.99852835E-02 -1.06058249E-02 -5.81463395E-02 -9.15719842E-03
 -6.86450234E-02 -1.41074062E-02 -6.36862731E-02 -1.36628858E-02  8.11312359E-02
  9.90923356E-03  8.78378308E-02  1.22831253E-02  1.83589769E-03 -4.73795767E-03
 -3.61712837E-02  4.29917352E-03 -6.42792394E-04 -2.85709457E-03 -1.45745573E-02
  2.52502600E-05  5.76686970E-05  2.04283954E-03 -8.72766772E-04 -7.94880770E-04
  2.57570425E-03  2.59037143E-04 -3.13983886E-04  3.95671348E-03 -7.51175427E-03
 -1.52617908E-01 -2.68986293E-02  4.75530491E-04 -1.12780720E-02 -3.48336220E-02
 -3.45690521E-03 -3.58264133E-03 -3.65506909E-03  3.48833813E-03 -1.89840804E-05
  1.27320709E-02 -9.64854127E-03 -2.04777795E-03 -1.39267836E-01  2.57084976E-01
 -2.38690879E-02 -1.26289812E-03  5.88387160E-05  2.73700651E-01 -5.81956455E-03
 -5.20727364E-05  1.94058335E-03  4.03826457E-03  6.30444144E-03  7.18696835E-03
 -3.29608810E-03  2.05376525E-03  8.34729954E-04  1.36375523E-01 -2.52988073E-01
 -1.56246844E-02 -8.44268965E-03  1.42477879E-03 -2.59707013E-01 -7.39328372E-03
  1.28196488E-03 -1.26344772E-03 -2.58569888E-03 -7.58105789E-03 -7.11049441E-03
 -1.50525243E-03  1.77835211E-03 -4.11689363E-05 -2.41283535E-03 -2.32365103E-03
  9.52104908E-02  2.63969258E-02  9.58405184E-02  2.61595321E-02  1.05684067E-01
  3.23665626E-02 -1.00843299E-01 -2.69248460E-02 -9.18253077E-02 -2.38730550E-02
 -9.32733813E-02 -2.59883651E-02 -1.82567915E-03 -6.76012919E-04  1.50646913E-02
  4.98601853E-03  3.18461859E-02 -6.54577190E-02  5.35629202E-02 -1.34565634E-01
 -1.31342466E-01 -1.05699203E-01  3.16816763E-02 -6.15884813E-02 -6.50665891E-02
 -6.72628680E-03  1.72304915E-02 -1.22613227E-02  4.13290355E-03  1.75606517E-03
  7.49542923E-03 -1.25951677E-01  2.44934537E-01 -7.51309445E-03  4.65891572E-02
 -1.20925295E-01  2.93113399E-01 -1.67936526E-02 -8.01922277E-04 -4.75141953E-02
 -8.29511407E-03 -8.87004333E-04  1.38131335E-02  1.12808417E-04  3.70802721E-04
  1.08119291E-03  6.11816622E-02 -1.11219858E-01  8.28609491E-02  7.92989212E-02
 -7.17001093E-02 -1.62289469E-01  1.94032800E-02  1.91910966E-02 -2.10135752E-02
  2.11855545E-03 -1.37828832E-03 -7.71107873E-03  9.84582452E-03 -6.25754597E-03
 -5.76057639E-03  6.92225032E-02 -1.27914836E-01 -1.08355100E-01  5.28994785E-02
 -7.14256842E-02 -1.61872076E-01 -3.08173757E-02  1.77716854E-02 -2.65210545E-02
  7.65821219E-03 -7.07959849E-03 -8.71723196E-03 -7.09223847E-03  8.12399525E-03
 -3.70543362E-03  1.59149935E-01  6.66079584E-02 -6.88624262E-02 -3.38995693E-02
 -8.79864199E-02 -4.47822678E-02 -6.13241454E-02 -2.97430165E-02 -6.55086124E-02
 -3.12663506E-02 -7.76575051E-02 -3.84404385E-02 -9.52705056E-02 -4.62309963E-02
 -9.96273559E-02 -4.08469074E-02 -5.47586629E-02 -2.17755004E-02  8.44729450E-03