74190                                                                   
Freq      RMP2-FC                                                     6-31G(d)            
Number of atoms                            I               14
Info1-9                                    I   N=           9
          26          24        1002           0           0         100
           6           2           1
Charge                                     I                0
Multiplicity                               I                1
Number of electrons                        I               66
Number of alpha electrons                  I               33
Number of beta electrons                   I               33
Number of basis functions                  I              123
Number of independent functions            I              123
Number of point charges in /Mol/           I                0
Number of translation vectors              I                0
Atomic numbers                             I   N=          14
          15           8           8           8           8           6
           6           1           1           1           1           1
           1           1
Nuclear charges                            R   N=          14
  1.50000000E+01  8.00000000E+00  8.00000000E+00  8.00000000E+00  8.00000000E+00
  6.00000000E+00  6.00000000E+00  1.00000000E+00  1.00000000E+00  1.00000000E+00
  1.00000000E+00  1.00000000E+00  1.00000000E+00  1.00000000E+00
Current cartesian coordinates              R   N=          42
  1.65704908E+00 -2.31873471E-01 -1.82146028E-01 -1.25041322E+00 -8.82443190E-01
 -6.57185193E-01  1.97238846E+00  1.50073198E-01  2.85748717E+00  1.75300286E+00
  2.66652611E+00 -1.14186961E+00  3.45534893E+00 -2.06706968E+00 -1.27610531E+00
 -3.21655073E+00  7.81990374E-01  3.03746994E-01 -5.70826958E+00 -5.42281776E-01
 -1.28323244E-01 -2.87275453E+00  1.13145202E+00  2.31170218E+00 -3.10751346E+00
  2.57268269E+00 -7.18031429E-01 -7.25988555E+00  6.48005040E-01  5.41557604E-01
 -5.98055225E+00 -9.17104791E-01 -2.13858874E+00 -5.75823959E+00 -2.33461278E+00
  8.92122854E-01  2.77165246E+00 -1.35137459E+00  3.56634586E+00  3.45786235E+00
  3.35411136E+00 -1.03407687E+00
Force Field                                I                0
Int Atom Types                             I   N=          14
           0           0           0           0           0           0
           0           0           0           0           0           0
           0           0
MM charges                                 R   N=          14
  0.00000000E+00  0.00000000E+00  0.00000000E+00  0.00000000E+00  0.00000000E+00
  0.00000000E+00  0.00000000E+00  0.00000000E+00  0.00000000E+00  0.00000000E+00
  0.00000000E+00  0.00000000E+00  0.00000000E+00  0.00000000E+00
Integer atomic weights                     I   N=          14
          31          16          16          16          16          12
          12           1           1           1           1           1
           1           1
Real atomic weights                        R   N=          14
  3.09737634E+01  1.59949146E+01  1.59949146E+01  1.59949146E+01  1.59949146E+01
  1.20000000E+01  1.20000000E+01  1.00782504E+00  1.00782504E+00  1.00782504E+00
  1.00782504E+00  1.00782504E+00  1.00782504E+00  1.00782504E+00
Atom fragment info                         I   N=          14
           0           0           0           0           0           0
           0           0           0           0           0           0
           0           0
Atom residue num                           I   N=          14
           0           0           0           0           0           0
           0           0           0           0           0           0
           0           0
Nuclear spins                              I   N=          14
           1           0           0           0           0           0
           0           1           1           1           1           1
           1           1
Nuclear ZEff                               R   N=          14
 -1.29400000E+01 -5.60000000E+00 -5.60000000E+00 -5.60000000E+00 -5.60000000E+00
 -3.60000000E+00 -3.60000000E+00 -1.00000000E+00 -1.00000000E+00 -1.00000000E+00
 -1.00000000E+00 -1.00000000E+00 -1.00000000E+00 -1.00000000E+00
Nuclear QMom                               R   N=          14
  0.00000000E+00  0.00000000E+00  0.00000000E+00  0.00000000E+00  0.00000000E+00
  0.00000000E+00  0.00000000E+00  0.00000000E+00  0.00000000E+00  0.00000000E+00
  0.00000000E+00  0.00000000E+00  0.00000000E+00  0.00000000E+00
Nuclear GFac                               R   N=          14
  1.13160000E+00  0.00000000E+00  0.00000000E+00  0.00000000E+00  0.00000000E+00
  0.00000000E+00  0.00000000E+00  2.79284600E+00  2.79284600E+00  2.79284600E+00
  2.79284600E+00  2.79284600E+00  2.79284600E+00  2.79284600E+00
MicOpt                                     I   N=          14
          -1          -1          -1          -1          -1          -1
          -1          -1          -1          -1          -1          -1
          -1          -1
Number of contracted shells                I               43
Number of primitive shells                 I              111
Pure/Cartesian d shells                    I                1
Pure/Cartesian f shells                    I                0
Highest angular momentum                   I                2
Largest degree of contraction              I                6
Shell types                                I   N=          43
           0          -1          -1          -1           2           0
          -1          -1           2           0          -1          -1
           2           0          -1          -1           2           0
          -1          -1           2           0          -1          -1
           2           0          -1          -1           2           0
           0           0           0           0           0           0
           0           0           0           0           0           0
           0
Number of primitives per shell             I   N=          43
           6           6           3           1           1           6
           3           1           1           6           3           1
           1           6           3           1           1           6
           3           1           1           6           3           1
           1           6           3           1           1           3
           1           3           1           3           1           3
           1           3           1           3           1           3
           1
Shell to atom map                          I   N=          43
           1           1           1           1           1           2
           2           2           2           3           3           3
           3           4           4           4           4           5
           5           5           5           6           6           6
           6           7           7           7           7           8
           8           9           9          10          10          11
          11          12          12          13          13          14
          14
Primitive exponents                        R   N=         111
  1.94133000E+04  2.90942000E+03  6.61364000E+02  1.85759000E+02  5.91943000E+01
  2.00310000E+01  3.39478000E+02  8.10101000E+01  2.58780000E+01  9.45221000E+00
  3.66566000E+00  1.46746000E+00  2.15623000E+00  7.48997000E-01  2.83145000E-01
  9.98317000E-02  5.50000000E-01  5.48467166E+03  8.25234946E+02  1.88046958E+02
  5.29645000E+01  1.68975704E+01  5.79963534E+00  1.55396162E+01  3.59993359E+00
  1.01376175E+00  2.70005823E-01  8.00000000E-01  5.48467166E+03  8.25234946E+02
  1.88046958E+02  5.29645000E+01  1.68975704E+01  5.79963534E+00  1.55396162E+01
  3.59993359E+00  1.01376175E+00  2.70005823E-01  8.00000000E-01  5.48467166E+03
  8.25234946E+02  1.88046958E+02  5.29645000E+01  1.68975704E+01  5.79963534E+00
  1.55396162E+01  3.59993359E+00  1.01376175E+00  2.70005823E-01  8.00000000E-01
  5.48467166E+03  8.25234946E+02  1.88046958E+02  5.29645000E+01  1.68975704E+01
  5.79963534E+00  1.55396162E+01  3.59993359E+00  1.01376175E+00  2.70005823E-01
  8.00000000E-01  3.04752488E+03  4.57369518E+02  1.03948685E+02  2.92101553E+01
  9.28666296E+00  3.16392696E+00  7.86827235E+00  1.88128854E+00  5.44249258E-01
  1.68714478E-01  8.00000000E-01  3.04752488E+03  4.57369518E+02  1.03948685E+02
  2.92101553E+01  9.28666296E+00  3.16392696E+00  7.86827235E+00  1.88128854E+00
  5.44249258E-01  1.68714478E-01  8.00000000E-01  1.87311370E+01  2.82539436E+00
  6.40121692E-01  1.61277759E-01  1.87311370E+01  2.82539436E+00  6.40121692E-01
  1.61277759E-01  1.87311370E+01  2.82539436E+00  6.40121692E-01  1.61277759E-01
  1.87311370E+01  2.82539436E+00  6.40121692E-01  1.61277759E-01  1.87311370E+01
  2.82539436E+00  6.40121692E-01  1.61277759E-01  1.87311370E+01  2.82539436E+00
  6.40121692E-01  1.61277759E-01  1.87311370E+01  2.82539436E+00  6.40121692E-01
  1.61277759E-01
Contraction coefficients                   R   N=         111
  1.85159892E-03  1.42061917E-02  6.99994593E-02  2.40078860E-01  4.84761718E-01
  3.35199805E-01 -2.78217010E-03 -3.60499014E-02 -1.16631004E-01  9.68328036E-02
  6.14418023E-01  4.03798015E-01 -2.52924114E-01  3.28518447E-02  1.08125476E+00
  1.00000000E+00  1.00000000E+00  1.83107443E-03  1.39501722E-02  6.84450781E-02
  2.32714336E-01  4.70192898E-01  3.58520853E-01 -1.10777550E-01 -1.48026263E-01
  1.13076702E+00  1.00000000E+00  1.00000000E+00  1.83107443E-03  1.39501722E-02
  6.84450781E-02  2.32714336E-01  4.70192898E-01  3.58520853E-01 -1.10777550E-01
 -1.48026263E-01  1.13076702E+00  1.00000000E+00  1.00000000E+00  1.83107443E-03
  1.39501722E-02  6.84450781E-02  2.32714336E-01  4.70192898E-01  3.58520853E-01
 -1.10777550E-01 -1.48026263E-01  1.13076702E+00  1.00000000E+00  1.00000000E+00
  1.83107443E-03  1.39501722E-02  6.84450781E-02  2.32714336E-01  4.70192898E-01
  3.58520853E-01 -1.10777550E-01 -1.48026263E-01  1.13076702E+00  1.00000000E+00
  1.00000000E+00  1.83473713E-03  1.40373228E-02  6.88426223E-02  2.32184443E-01
  4.67941348E-01  3.62311985E-01 -1.19332420E-01 -1.60854152E-01  1.14345644E+00
  1.00000000E+00  1.00000000E+00  1.83473713E-03  1.40373228E-02  6.88426223E-02
  2.32184443E-01  4.67941348E-01  3.62311985E-01 -1.19332420E-01 -1.60854152E-01
  1.14345644E+00  1.00000000E+00  1.00000000E+00  3.34946043E-02  2.34726953E-01
  8.13757326E-01  1.00000000E+00  3.34946043E-02  2.34726953E-01  8.13757326E-01
  1.00000000E+00  3.34946043E-02  2.34726953E-01  8.13757326E-01  1.00000000E+00
  3.34946043E-02  2.34726953E-01  8.13757326E-01  1.00000000E+00  3.34946043E-02
  2.34726953E-01  8.13757326E-01  1.00000000E+00  3.34946043E-02  2.34726953E-01
  8.13757326E-01  1.00000000E+00  3.34946043E-02  2.34726953E-01  8.13757326E-01
  1.00000000E+00
P(S=P) Contraction coefficients            R   N=         111
  0.00000000E+00  0.00000000E+00  0.00000000E+00  0.00000000E+00  0.00000000E+00
  0.00000000E+00  4.56461619E-03  3.36935719E-02  1.39754883E-01  3.39361717E-01
  4.50920624E-01  2.38585801E-01 -1.77653127E-02  2.74058196E-01  7.85421563E-01
  1.00000000E+00  0.00000000E+00  0.00000000E+00  0.00000000E+00  0.00000000E+00
  0.00000000E+00  0.00000000E+00  0.00000000E+00  7.08742682E-02  3.39752839E-01
  7.27158577E-01  1.00000000E+00  0.00000000E+00  0.00000000E+00  0.00000000E+00
  0.00000000E+00  0.00000000E+00  0.00000000E+00  0.00000000E+00  7.08742682E-02
  3.39752839E-01  7.27158577E-01  1.00000000E+00  0.00000000E+00  0.00000000E+00
  0.00000000E+00  0.00000000E+00  0.00000000E+00  0.00000000E+00  0.00000000E+00
  7.08742682E-02  3.39752839E-01  7.27158577E-01  1.00000000E+00  0.00000000E+00
  0.00000000E+00  0.00000000E+00  0.00000000E+00  0.00000000E+00  0.00000000E+00
  0.00000000E+00  7.08742682E-02  3.39752839E-01  7.27158577E-01  1.00000000E+00
  0.00000000E+00  0.00000000E+00  0.00000000E+00  0.00000000E+00  0.00000000E+00
  0.00000000E+00  0.00000000E+00  6.89990666E-02  3.16423961E-01  7.44308291E-01
  1.00000000E+00  0.00000000E+00  0.00000000E+00  0.00000000E+00  0.00000000E+00
  0.00000000E+00  0.00000000E+00  0.00000000E+00  6.89990666E-02  3.16423961E-01
  7.44308291E-01  1.00000000E+00  0.00000000E+00  0.00000000E+00  0.00000000E+00
  0.00000000E+00  0.00000000E+00  0.00000000E+00  0.00000000E+00  0.00000000E+00
  0.00000000E+00  0.00000000E+00  0.00000000E+00  0.00000000E+00  0.00000000E+00
  0.00000000E+00  0.00000000E+00  0.00000000E+00  0.00000000E+00  0.00000000E+00
  0.00000000E+00  0.00000000E+00  0.00000000E+00  0.00000000E+00  0.00000000E+00
  0.00000000E+00  0.00000000E+00  0.00000000E+00  0.00000000E+00  0.00000000E+00
  0.00000000E+00
Coordinates of each shell                  R   N=         129
  1.65704908E+00 -2.31873471E-01 -1.82146028E-01  1.65704908E+00 -2.31873471E-01
 -1.82146028E-01  1.65704908E+00 -2.31873471E-01 -1.82146028E-01  1.65704908E+00
 -2.31873471E-01 -1.82146028E-01  1.65704908E+00 -2.31873471E-01 -1.82146028E-01
 -1.25041322E+00 -8.82443190E-01 -6.57185193E-01 -1.25041322E+00 -8.82443190E-01
 -6.57185193E-01 -1.25041322E+00 -8.82443190E-01 -6.57185193E-01 -1.25041322E+00
 -8.82443190E-01 -6.57185193E-01  1.97238846E+00  1.50073198E-01  2.85748717E+00
  1.97238846E+00  1.50073198E-01  2.85748717E+00  1.97238846E+00  1.50073198E-01
  2.85748717E+00  1.97238846E+00  1.50073198E-01  2.85748717E+00  1.75300286E+00
  2.66652611E+00 -1.14186961E+00  1.75300286E+00  2.66652611E+00 -1.14186961E+00
  1.75300286E+00  2.66652611E+00 -1.14186961E+00  1.75300286E+00  2.66652611E+00
 -1.14186961E+00  3.45534893E+00 -2.06706968E+00 -1.27610531E+00  3.45534893E+00
 -2.06706968E+00 -1.27610531E+00  3.45534893E+00 -2.06706968E+00 -1.27610531E+00
  3.45534893E+00 -2.06706968E+00 -1.27610531E+00 -3.21655073E+00  7.81990374E-01
  3.03746994E-01 -3.21655073E+00  7.81990374E-01  3.03746994E-01 -3.21655073E+00
  7.81990374E-01  3.03746994E-01 -3.21655073E+00  7.81990374E-01  3.03746994E-01
 -5.70826958E+00 -5.42281776E-01 -1.28323244E-01 -5.70826958E+00 -5.42281776E-01
 -1.28323244E-01 -5.70826958E+00 -5.42281776E-01 -1.28323244E-01 -5.70826958E+00
 -5.42281776E-01 -1.28323244E-01 -2.87275453E+00  1.13145202E+00  2.31170218E+00
 -2.87275453E+00  1.13145202E+00  2.31170218E+00 -3.10751346E+00  2.57268269E+00
 -7.18031429E-01 -3.10751346E+00  2.57268269E+00 -7.18031429E-01 -7.25988555E+00
  6.48005040E-01  5.41557604E-01 -7.25988555E+00  6.48005040E-01  5.41557604E-01
 -5.98055225E+00 -9.17104791E-01 -2.13858874E+00 -5.98055225E+00 -9.17104791E-01
 -2.13858874E+00 -5.75823959E+00 -2.33461278E+00  8.92122854E-01 -5.75823959E+00
 -2.33461278E+00  8.92122854E-01  2.77165246E+00 -1.35137459E+00  3.56634586E+00
  2.77165246E+00 -1.35137459E+00  3.56634586E+00  3.45786235E+00  3.35411136E+00
 -1.03407687E+00  3.45786235E+00  3.35411136E+00 -1.03407687E+00
Constraint Structure                       R   N=          42
  1.65704908E+00 -2.31873471E-01 -1.82146028E-01 -1.25041322E+00 -8.82443190E-01
 -6.57185193E-01  1.97238846E+00  1.50073198E-01  2.85748717E+00  1.75300286E+00
  2.66652611E+00 -1.14186961E+00  3.45534893E+00 -2.06706968E+00 -1.27610531E+00
 -3.21655073E+00  7.81990374E-01  3.03746994E-01 -5.70826958E+00 -5.42281776E-01
 -1.28323244E-01 -2.87275453E+00  1.13145202E+00  2.31170218E+00 -3.10751346E+00
  2.57268269E+00 -7.18031429E-01 -7.25988555E+00  6.48005040E-01  5.41557604E-01
 -5.98055225E+00 -9.17104791E-01 -2.13858874E+00 -5.75823959E+00 -2.33461278E+00
  8.92122854E-01  2.77165246E+00 -1.35137459E+00  3.56634586E+00  3.45786235E+00
  3.35411136E+00 -1.03407687E+00
Num ILSW                                   I              100
ILSW                                       I   N=         100
           0           1           0           0           2           0
           0           0           0           0           0          -1
           0           0           0           0           0           0
           0           0           0           0           1           0
           1           0           0           0           0           0
           0           0      100000           0          -1           0
           0           0           0           0           0           0
           0           0           0           1           1           0
           0           0           1           0           0           0
           0           0           4          40           0           0
           0           0           0           0           0           0
           0           0           0           0           0           0
           0           0           0           0           0           0
           0           0           0           0           0           0
           0           0           0           0           0           0
           0           0           0           0           0           0
           0           0           0           0
Num RLSW                                   I               40
RLSW                                       R   N=          40
  1.00000000E+00  1.00000000E+00  1.00000000E+00  1.00000000E+00  1.00000000E+00
  0.00000000E+00  0.00000000E+00  1.00000000E+00  0.00000000E+00  0.00000000E+00
  0.00000000E+00  0.00000000E+00  1.00000000E+00  0.00000000E+00  0.00000000E+00
  0.00000000E+00  0.00000000E+00  1.00000000E+00  0.00000000E+00  0.00000000E+00
  0.00000000E+00  0.00000000E+00  1.00000000E+00  0.00000000E+00  0.00000000E+00
  0.00000000E+00  0.00000000E+00  1.00000000E+00  0.00000000E+00  0.00000000E+00
  0.00000000E+00  0.00000000E+00  0.00000000E+00  0.00000000E+00  0.00000000E+00
  0.00000000E+00  0.00000000E+00  0.00000000E+00  1.00000000E+00  1.00000000E+00
MxBond                                     I                4
NBond                                      I   N=          14
           4           2           2           2           1           4
           4           1           1           1           1           1
           1           1
IBond                                      I   N=          56
           2           3           4           5           1           6
           0           0           1          13           0           0
           1          14           0           0           1           0
           0           0           2           7           8           9
           6          10          11          12           6           0
           0           0           6           0           0           0
           7           0           0           0           7           0
           0           0           7           0           0           0
           3           0           0           0           4           0
           0           0
RBond                                      R   N=          56
  1.00000000E+00  1.00000000E+00  1.00000000E+00  2.00000000E+00  1.00000000E+00
  1.00000000E+00  0.00000000E+00  0.00000000E+00  1.00000000E+00  1.00000000E+00
  0.00000000E+00  0.00000000E+00  1.00000000E+00  1.00000000E+00  0.00000000E+00
  0.00000000E+00  2.00000000E+00  0.00000000E+00  0.00000000E+00  0.00000000E+00
  1.00000000E+00  1.00000000E+00  1.00000000E+00  1.00000000E+00  1.00000000E+00
  1.00000000E+00  1.00000000E+00  1.00000000E+00  1.00000000E+00  0.00000000E+00
  0.00000000E+00  0.00000000E+00  1.00000000E+00  0.00000000E+00  0.00000000E+00
  0.00000000E+00  1.00000000E+00  0.00000000E+00  0.00000000E+00  0.00000000E+00
  1.00000000E+00  0.00000000E+00  0.00000000E+00  0.00000000E+00  1.00000000E+00
  0.00000000E+00  0.00000000E+00  0.00000000E+00  1.00000000E+00  0.00000000E+00
  0.00000000E+00  0.00000000E+00  1.00000000E+00  0.00000000E+00  0.00000000E+00
  0.00000000E+00
Virial Ratio                               R      2.002419058976743E+00
SCF Energy                                 R     -7.200779446316699E+02
MP2 Energy                                 R     -7.211678875884592E+02
Total Energy                               R     -7.211678875884592E+02
Post-SCF wavefunction norm                 R      1.625694623664211E+00
RMS Force                                  R      4.414006672818532E-07
RMS Density                                R      6.951365436646282E-10
External E-field                           R   N=          35
  0.00000000E+00  0.00000000E+00  0.00000000E+00  0.00000000E+00  0.00000000E+00
  0.00000000E+00  0.00000000E+00  0.00000000E+00  0.00000000E+00  0.00000000E+00
  0.00000000E+00  0.00000000E+00  0.00000000E+00  0.00000000E+00  0.00000000E+00
  0.00000000E+00  0.00000000E+00  0.00000000E+00  0.00000000E+00  0.00000000E+00
  0.00000000E+00  0.00000000E+00  0.00000000E+00  0.00000000E+00  0.00000000E+00
  0.00000000E+00  0.00000000E+00  0.00000000E+00  0.00000000E+00  0.00000000E+00
  0.00000000E+00  0.00000000E+00  0.00000000E+00  0.00000000E+00  0.00000000E+00
IOpCl                                      I                0
IROHF                                      I                0
Alpha Orbital Energies                     R   N=         123
 -8.01255398E+01 -2.06201106E+01 -2.06184879E+01 -2.06034571E+01 -2.05261733E+01
 -1.13031082E+01 -1.12303979E+01 -7.64584737E+00 -5.54445514E+00 -5.54424765E+00
 -5.54345985E+00 -1.45374279E+00 -1.38345323E+00 -1.38194144E+00 -1.29659323E+00
 -1.04083954E+00 -8.72905029E-01 -8.43390944E-01 -7.53742618E-01 -7.18450518E-01
 -6.72057480E-01 -6.66195145E-01 -6.36610203E-01 -6.02669989E-01 -5.86090286E-01
 -5.66502775E-01 -5.56729172E-01 -5.42815181E-01 -5.32309403E-01 -5.08450326E-01
 -4.82225685E-01 -4.66309196E-01 -4.62733397E-01  1.79098650E-01  2.17447788E-01
  2.40619441E-01  2.63645246E-01  2.92400246E-01  2.93605975E-01  3.03102273E-01
  3.14366438E-01  3.22619601E-01  3.52485508E-01  3.67841217E-01  3.88507025E-01
  4.05184215E-01  5.12328552E-01  5.26175864E-01  5.34492175E-01  5.97141125E-01
  7.36053785E-01  7.37617678E-01  7.52628727E-01  7.86984036E-01  8.33255285E-01
  8.86276475E-01  9.01402047E-01  9.45772510E-01  1.02371367E+00  1.03581586E+00
  1.08895195E+00  1.09910367E+00  1.13221832E+00  1.14917228E+00  1.15818200E+00
  1.16471775E+00  1.18753163E+00  1.21247949E+00  1.22346714E+00  1.25180013E+00
  1.25721066E+00  1.26974279E+00  1.29201207E+00  1.35218567E+00  1.35719220E+00
  1.38582080E+00  1.44452755E+00  1.48522977E+00  1.49773163E+00  1.52609232E+00
  1.55650624E+00  1.60784857E+00  1.67106810E+00  1.70830444E+00  1.71907231E+00
  1.81961972E+00  1.84064677E+00  1.93732591E+00  1.98595559E+00  1.99840089E+00
  2.02616024E+00  2.05345294E+00  2.09006761E+00  2.11985975E+00  2.12221846E+00
  2.20259987E+00  2.24477753E+00  2.27103350E+00  2.29153224E+00  2.32542530E+00
  2.35435532E+00  2.45016887E+00  2.46652196E+00  2.52394778E+00  2.56020484E+00
  2.66568585E+00  2.67166276E+00  2.67617031E+00  2.71680213E+00  2.72243992E+00
  2.83592238E+00  2.94962225E+00  2.99043526E+00  3.08056090E+00  3.14776262E+00
  3.23969493E+00  3.86231842E+00  4.05052857E+00  4.17959688E+00  4.30949528E+00
  4.41745748E+00  4.60291952E+00  4.81918763E+00
Alpha MO coefficients                      R   N=       15129
  9.96427071E-01  1.34925906E-02 -3.19135134E-05  3.26791450E-05  2.21851419E-05
 -2.20126344E-02  2.89264305E-05  1.32003886E-05 -7.78209683E-06  2.16203126E-03
 -3.85464055E-05  9.07753014E-05  9.94417194E-05  7.43591114E-03  7.47200522E-03
  7.49046960E-03  3.15979493E-05  9.79421908E-06 -9.04049642E-06 -1.99875403E-05
 -1.17442992E-04 -9.12455594E-05 -4.17764358E-05 -2.50894508E-05  9.07546079E-04
  3.70021067E-04  1.95471195E-04  1.20681161E-04 -1.89961054E-04 -5.96598639E-05
 -6.68141068E-05 -5.59786471E-05 -3.66312638E-05  9.22601128E-06 -1.23004845E-05
 -7.10816298E-05 -3.29865134E-06  3.94057088E-05  6.27338555E-05  7.03429106E-04
  2.91324915E-05 -2.06500927E-04 -3.16584788E-04 -4.08594021E-05 -1.57847849E-05
 -1.87324281E-04 -2.88807772E-05 -5.96282410E-06 -3.63591981E-05 -1.45735417E-05
 -8.12162870E-05 -2.55754299E-05  7.21245364E-05 -2.03865047E-05  7.54862997E-04
  1.37197202E-04 -3.30508645E-04  1.02296000E-04 -1.11240590E-05 -1.84341280E-04
 -7.67444357E-05  1.02970340E-05  4.23607099E-06  5.58280323E-05 -1.34264497E-05
 -1.36386118E-04  1.11258370E-04 -1.11341709E-04 -6.40516800E-05  8.46808053E-04
 -3.42672687E-04  3.41471530E-04  1.96311434E-04 -8.77030217E-05 -8.52181607E-05
 -5.14376753E-05  6.05616156E-05  3.47277439E-05 -3.63447999E-05 -4.02947355E-06
 -2.09492178E-05 -2.89069101E-05 -1.02372430E-05 -3.31326848E-06 -7.74437181E-05
 -9.46841361E-05  1.54077668E-04  7.17042573E-05 -2.12215452E-05 -2.24693737E-06
 -7.01631679E-06  1.12818623E-05  9.29822018E-06  1.39930147E-05 -9.56716579E-06
 -3.42414331E-05 -4.14322054E-06 -1.38099369E-06  1.17711134E-06  1.91924375E-04
  7.88858188E-05 -3.92623901E-05 -2.29306621E-05 -4.91485564E-06 -2.75894914E-05
 -1.54551202E-05 -1.27484136E-06 -1.04299149E-06 -4.45972250E-06  1.38810188E-05
 -1.58204018E-04  1.85289555E-05 -1.50029379E-04 -2.41985569E-06  8.00305090E-06
 -1.31066523E-05 -3.32680075E-05 -5.10461801E-06 -5.10662572E-05 -7.77137197E-05
 -2.07397340E-04 -6.62246311E-05 -1.98836207E-04  1.20872672E-05 -5.59391677E-05
 -3.90799807E-06 -6.39190423E-05  1.82945944E-05  2.74401206E-04  3.05153699E-05
  3.68144775E-04 -1.14936860E-04 -4.06595610E-04  4.30573441E-04 -3.32378569E-04
  1.03416812E-04 -1.01912810E-04  1.81330321E-04 -7.09896269E-05  3.67464250E-05
 -1.42888272E-05 -1.02953567E-04 -4.08586215E-04 -4.48026860E-05 -4.07256581E-06
  1.03653536E-05  2.49259998E-06  3.02539018E-04  7.84556181E-05 -4.86992782E-05
  1.64736950E-05 -2.71446584E-05 -6.35973976E-05 -4.67728954E-06 -2.78731995E-05
  1.19727042E-05  1.16382971E-05 -4.16270808E-03 -1.18724316E-04  1.17222779E-05
 -4.27846437E-06  6.73434258E-06  1.75060669E-04 -8.43163416E-05 -8.69388335E-06
  3.13400495E-06 -9.41717067E-06 -3.16600483E-05 -2.75554003E-05  6.54485929E-06
  1.63870415E-05  3.02575483E-05  9.94590493E-01  2.11350568E-02  9.83828768E-04
 -5.39245568E-04  3.90635890E-04  4.45541857E-03 -5.43488418E-04  2.24583349E-04
 -1.58468573E-04 -4.21187400E-03 -4.26325591E-03 -4.05076797E-03 -6.95382628E-05
 -2.16752999E-05  7.35064507E-05 -6.09991156E-05  6.47836252E-05  4.90155986E-06
  3.00656506E-07  2.02915913E-05 -3.01265677E-04 -5.36491921E-05 -1.95352174E-05
 -6.05171648E-05  7.27709874E-05  3.79791872E-05  5.71574968E-05 -8.22891346E-06
  8.78194194E-07  5.02685075E-06 -6.19104037E-06 -4.07280231E-05  3.23703966E-05
  5.32650241E-06  3.23769300E-06  3.35450517E-04 -1.14571366E-04 -2.65183471E-05
 -8.02419887E-05  1.38594737E-05 -1.13861998E-05 -7.08809310E-06  1.32043133E-05
  7.51739150E-06  5.61582644E-06  5.27988133E-06  2.93624423E-05 -1.12680495E-05
 -9.87074093E-06  9.16021047E-06 -2.43645116E-04 -7.34020849E-05 -2.92078505E-05
 -5.06360561E-05 -4.09098453E-06  1.18994717E-06  1.05448912E-05 -7.90736212E-06
 -6.71544845E-07  2.81923488E-07 -1.14718130E-05  9.07837502E-05  5.15256093E-05
 -1.96460440E-04  1.00226536E-05  1.67067302E-05 -1.79062562E-06  4.51764694E-06
  1.19926057E-05  3.58456249E-05  2.43271767E-05 -9.97272691E-05  4.08907324E-04
 -2.29455480E-04  1.32867666E-05 -3.65598037E-05 -8.61674288E-06 -5.74345748E-06
 -6.56116195E-05  3.52261410E-04  4.76975883E-05  2.08220739E-05  3.63927413E-04
 -7.68277238E-04  3.47828032E-04 -6.15098398E-04 -3.38286613E-04 -8.56820694E-05
 -1.03649862E-04  2.18089780E-04  1.05373676E-05  4.15722502E-05  1.97781591E-05
 -4.82267788E-04 -4.21838876E-05  2.78008510E-06 -1.23000174E-05 -1.98414918E-06
  2.13940573E-04  4.44306283E-05  8.34610811E-05 -2.14785993E-05 -5.87246788E-06
 -2.41732215E-06 -3.33996609E-05  1.08050664E-05 -1.76883463E-05 -1.12725329E-05
  9.94590093E-01  2.10784354E-02  3.49157956E-04 -9.95948290E-04 -5.33003842E-04
  4.62166028E-03 -2.41556193E-04  5.37388834E-04  1.67945139E-04 -4.07686317E-03
 -4.19134900E-03 -4.29012467E-03  8.08339661E-05 -5.58822403E-05  2.31320464E-05
  4.13287122E-03  6.97429142E-06  2.29413008E-05  2.60826549E-06  9.63009514E-07
  5.45102403E-04 -1.30586290E-04 -1.03467668E-04  1.96858829E-05 -6.91827093E-05
 -6.10789884E-05 -1.06349885E-04  7.16728133E-06 -9.83912072E-06  2.32331270E-05
 -7.50839029E-05  8.83774609E-05 -1.09268495E-05 -8.21122083E-06 -1.11448513E-05
 -4.31359348E-04  2.68206469E-05  4.15198601E-05 -1.14173678E-05  7.59897913E-05
  8.17853078E-05  4.57740533E-05 -7.30842937E-06  1.61799166E-06 -6.65818340E-06
 -9.80669730E-06 -4.51857007E-05 -1.56043932E-05  1.95250362E-06 -3.87227697E-06
  1.94889342E-04  1.78476546E-04  3.38493159E-05  9.52465305E-05 -8.87137667E-06
 -1.54409093E-05 -1.72313840E-05  4.94260064E-06  6.34598536E-06 -6.11092001E-06
 -1.33503553E-06 -6.78300495E-06 -2.16559351E-06  3.00896198E-06 -5.62036704E-06
  8.08112730E-05  4.32902868E-05  1.98131790E-05  1.71999262E-05 -7.72740197E-07
  2.68310585E-07 -3.58749030E-06  2.87720997E-06 -1.58196011E-06 -1.17839990E-06
  1.72194123E-05 -1.40257869E-04 -2.59118451E-05  7.34513933E-05 -1.56287041E-06
  3.85068086E-06 -7.30867793E-07  1.39038081E-05 -7.84776809E-06  5.11208882E-06
  4.00964129E-04 -2.24018978E-04  1.78851192E-05  1.01884071E-04  1.35790795E-05
 -5.05712093E-05  7.63742943E-05  9.36354713E-06  7.46116444E-06  3.34718256E-04
 -5.22522773E-04 -6.50011254E-05 -4.46390694E-05 -5.18015653E-04  3.25649634E-04
  2.85288884E-04  1.57575124E-04  2.54317326E-04 -1.03506119E-04 -9.26121322E-05
  6.31441187E-05  5.18940972E-05 -1.50805043E-05  9.94609762E-01  2.12161083E-02
  3.63799974E-04  9.02283451E-04  5.65943186E-04  4.14613670E-03 -1.98539062E-04
 -6.06182126E-04 -3.71453789E-04 -4.33140345E-03 -4.13174073E-03 -4.03689734E-03
  6.75644984E-05  2.86712151E-05 -1.06692014E-04  4.78138468E-04  1.94720652E-05
  1.77147746E-05  1.52687485E-05  2.84339817E-06 -2.84120569E-05 -2.14916096E-05
 -5.62551048E-05 -1.45262926E-05 -1.44065025E-05  1.47215415E-05  1.25465008E-05