078_AceticAnhydride Gaussian SP Calculation on g2-node38.bme.utexas.edu 
Freq      RMP2-FC                                                     6-31G(d)            
Number of atoms                            I               13
Info1-9                                    I   N=           9
          24          23        1002           0           0         100
           6           2           1
Charge                                     I                0
Multiplicity                               I                1
Number of electrons                        I               54
Number of alpha electrons                  I               27
Number of beta electrons                   I               27
Number of basis functions                  I              117
Number of independent functions            I              117
Number of point charges in /Mol/           I                0
Number of translation vectors              I                0
Atomic numbers                             I   N=          13
           8           8           8           6           6           6
           6           1           1           1           1           1
           1
Nuclear charges                            R   N=          13
  8.00000000E+00  8.00000000E+00  8.00000000E+00  6.00000000E+00  6.00000000E+00
  6.00000000E+00  6.00000000E+00  1.00000000E+00  1.00000000E+00  1.00000000E+00
  1.00000000E+00  1.00000000E+00  1.00000000E+00
Current cartesian coordinates              R   N=          39
  1.18159985E-05 -1.17376356E+00 -3.54466305E-05 -2.39648717E+00  2.26407411E+00
 -1.16427702E+00  2.39645091E+00  2.26406170E+00  1.16429416E+00 -2.26912105E+00
  1.65576980E-01 -2.77205498E-01  2.26909731E+00  1.65565111E-01  2.77196603E-01
 -4.42317334E+00 -1.46553826E+00  5.84673959E-01  4.42320564E+00 -1.46550067E+00
 -5.84654117E-01 -6.20147546E+00 -5.05261504E-01  1.93949948E-01 -4.24098031E+00
 -1.82759008E+00  2.60991741E+00 -4.35983066E+00 -3.28502594E+00 -3.88165031E-01
  4.35988346E+00 -3.28500404E+00  3.88156197E-01  6.20147315E+00 -5.05186089E-01
 -1.93869472E-01  4.24107402E+00 -1.82752934E+00 -2.60990834E+00
Force Field                                I                0
Int Atom Types                             I   N=          13
           0           0           0           0           0           0
           0           0           0           0           0           0
           0
MM charges                                 R   N=          13
  0.00000000E+00  0.00000000E+00  0.00000000E+00  0.00000000E+00  0.00000000E+00
  0.00000000E+00  0.00000000E+00  0.00000000E+00  0.00000000E+00  0.00000000E+00
  0.00000000E+00  0.00000000E+00  0.00000000E+00
Integer atomic weights                     I   N=          13
          16          16          16          12          12          12
          12           1           1           1           1           1
           1
Real atomic weights                        R   N=          13
  1.59949146E+01  1.59949146E+01  1.59949146E+01  1.20000000E+01  1.20000000E+01
  1.20000000E+01  1.20000000E+01  1.00782504E+00  1.00782504E+00  1.00782504E+00
  1.00782504E+00  1.00782504E+00  1.00782504E+00
Atom fragment info                         I   N=          13
           0           0           0           0           0           0
           0           0           0           0           0           0
           0
Atom residue num                           I   N=          13
           0           0           0           0           0           0
           0           0           0           0           0           0
           0
Nuclear spins                              I   N=          13
           0           0           0           0           0           0
           0           1           1           1           1           1
           1
Nuclear ZEff                               R   N=          13
 -5.60000000E+00 -5.60000000E+00 -5.60000000E+00 -3.60000000E+00 -3.60000000E+00
 -3.60000000E+00 -3.60000000E+00 -1.00000000E+00 -1.00000000E+00 -1.00000000E+00
 -1.00000000E+00 -1.00000000E+00 -1.00000000E+00
Nuclear QMom                               R   N=          13
  0.00000000E+00  0.00000000E+00  0.00000000E+00  0.00000000E+00  0.00000000E+00
  0.00000000E+00  0.00000000E+00  0.00000000E+00  0.00000000E+00  0.00000000E+00
  0.00000000E+00  0.00000000E+00  0.00000000E+00
Nuclear GFac                               R   N=          13
  0.00000000E+00  0.00000000E+00  0.00000000E+00  0.00000000E+00  0.00000000E+00
  0.00000000E+00  0.00000000E+00  2.79284600E+00  2.79284600E+00  2.79284600E+00
  2.79284600E+00  2.79284600E+00  2.79284600E+00
MicOpt                                     I   N=          13
          -1          -1          -1          -1          -1          -1
          -1          -1          -1          -1          -1          -1
          -1
Number of contracted shells                I               40
Number of primitive shells                 I              101
Pure/Cartesian d shells                    I                1
Pure/Cartesian f shells                    I                0
Highest angular momentum                   I                2
Largest degree of contraction              I                6
Shell types                                I   N=          40
           0          -1          -1           2           0          -1
          -1           2           0          -1          -1           2
           0          -1          -1           2           0          -1
          -1           2           0          -1          -1           2
           0          -1          -1           2           0           0
           0           0           0           0           0           0
           0           0           0           0
Number of primitives per shell             I   N=          40
           6           3           1           1           6           3
           1           1           6           3           1           1
           6           3           1           1           6           3
           1           1           6           3           1           1
           6           3           1           1           3           1
           3           1           3           1           3           1
           3           1           3           1
Shell to atom map                          I   N=          40
           1           1           1           1           2           2
           2           2           3           3           3           3
           4           4           4           4           5           5
           5           5           6           6           6           6
           7           7           7           7           8           8
           9           9          10          10          11          11
          12          12          13          13
Primitive exponents                        R   N=         101
  5.48467166E+03  8.25234946E+02  1.88046958E+02  5.29645000E+01  1.68975704E+01
  5.79963534E+00  1.55396162E+01  3.59993359E+00  1.01376175E+00  2.70005823E-01
  8.00000000E-01  5.48467166E+03  8.25234946E+02  1.88046958E+02  5.29645000E+01
  1.68975704E+01  5.79963534E+00  1.55396162E+01  3.59993359E+00  1.01376175E+00
  2.70005823E-01  8.00000000E-01  5.48467166E+03  8.25234946E+02  1.88046958E+02
  5.29645000E+01  1.68975704E+01  5.79963534E+00  1.55396162E+01  3.59993359E+00
  1.01376175E+00  2.70005823E-01  8.00000000E-01  3.04752488E+03  4.57369518E+02
  1.03948685E+02  2.92101553E+01  9.28666296E+00  3.16392696E+00  7.86827235E+00
  1.88128854E+00  5.44249258E-01  1.68714478E-01  8.00000000E-01  3.04752488E+03
  4.57369518E+02  1.03948685E+02  2.92101553E+01  9.28666296E+00  3.16392696E+00
  7.86827235E+00  1.88128854E+00  5.44249258E-01  1.68714478E-01  8.00000000E-01
  3.04752488E+03  4.57369518E+02  1.03948685E+02  2.92101553E+01  9.28666296E+00
  3.16392696E+00  7.86827235E+00  1.88128854E+00  5.44249258E-01  1.68714478E-01
  8.00000000E-01  3.04752488E+03  4.57369518E+02  1.03948685E+02  2.92101553E+01
  9.28666296E+00  3.16392696E+00  7.86827235E+00  1.88128854E+00  5.44249258E-01
  1.68714478E-01  8.00000000E-01  1.87311370E+01  2.82539436E+00  6.40121692E-01
  1.61277759E-01  1.87311370E+01  2.82539436E+00  6.40121692E-01  1.61277759E-01
  1.87311370E+01  2.82539436E+00  6.40121692E-01  1.61277759E-01  1.87311370E+01
  2.82539436E+00  6.40121692E-01  1.61277759E-01  1.87311370E+01  2.82539436E+00
  6.40121692E-01  1.61277759E-01  1.87311370E+01  2.82539436E+00  6.40121692E-01
  1.61277759E-01
Contraction coefficients                   R   N=         101
  1.83107443E-03  1.39501722E-02  6.84450781E-02  2.32714336E-01  4.70192898E-01
  3.58520853E-01 -1.10777550E-01 -1.48026263E-01  1.13076702E+00  1.00000000E+00
  1.00000000E+00  1.83107443E-03  1.39501722E-02  6.84450781E-02  2.32714336E-01
  4.70192898E-01  3.58520853E-01 -1.10777550E-01 -1.48026263E-01  1.13076702E+00
  1.00000000E+00  1.00000000E+00  1.83107443E-03  1.39501722E-02  6.84450781E-02
  2.32714336E-01  4.70192898E-01  3.58520853E-01 -1.10777550E-01 -1.48026263E-01
  1.13076702E+00  1.00000000E+00  1.00000000E+00  1.83473713E-03  1.40373228E-02
  6.88426223E-02  2.32184443E-01  4.67941348E-01  3.62311985E-01 -1.19332420E-01
 -1.60854152E-01  1.14345644E+00  1.00000000E+00  1.00000000E+00  1.83473713E-03
  1.40373228E-02  6.88426223E-02  2.32184443E-01  4.67941348E-01  3.62311985E-01
 -1.19332420E-01 -1.60854152E-01  1.14345644E+00  1.00000000E+00  1.00000000E+00
  1.83473713E-03  1.40373228E-02  6.88426223E-02  2.32184443E-01  4.67941348E-01
  3.62311985E-01 -1.19332420E-01 -1.60854152E-01  1.14345644E+00  1.00000000E+00
  1.00000000E+00  1.83473713E-03  1.40373228E-02  6.88426223E-02  2.32184443E-01
  4.67941348E-01  3.62311985E-01 -1.19332420E-01 -1.60854152E-01  1.14345644E+00
  1.00000000E+00  1.00000000E+00  3.34946043E-02  2.34726953E-01  8.13757326E-01
  1.00000000E+00  3.34946043E-02  2.34726953E-01  8.13757326E-01  1.00000000E+00
  3.34946043E-02  2.34726953E-01  8.13757326E-01  1.00000000E+00  3.34946043E-02
  2.34726953E-01  8.13757326E-01  1.00000000E+00  3.34946043E-02  2.34726953E-01
  8.13757326E-01  1.00000000E+00  3.34946043E-02  2.34726953E-01  8.13757326E-01
  1.00000000E+00
P(S=P) Contraction coefficients            R   N=         101
  0.00000000E+00  0.00000000E+00  0.00000000E+00  0.00000000E+00  0.00000000E+00
  0.00000000E+00  7.08742682E-02  3.39752839E-01  7.27158577E-01  1.00000000E+00
  0.00000000E+00  0.00000000E+00  0.00000000E+00  0.00000000E+00  0.00000000E+00
  0.00000000E+00  0.00000000E+00  7.08742682E-02  3.39752839E-01  7.27158577E-01
  1.00000000E+00  0.00000000E+00  0.00000000E+00  0.00000000E+00  0.00000000E+00
  0.00000000E+00  0.00000000E+00  0.00000000E+00  7.08742682E-02  3.39752839E-01
  7.27158577E-01  1.00000000E+00  0.00000000E+00  0.00000000E+00  0.00000000E+00
  0.00000000E+00  0.00000000E+00  0.00000000E+00  0.00000000E+00  6.89990666E-02
  3.16423961E-01  7.44308291E-01  1.00000000E+00  0.00000000E+00  0.00000000E+00
  0.00000000E+00  0.00000000E+00  0.00000000E+00  0.00000000E+00  0.00000000E+00
  6.89990666E-02  3.16423961E-01  7.44308291E-01  1.00000000E+00  0.00000000E+00
  0.00000000E+00  0.00000000E+00  0.00000000E+00  0.00000000E+00  0.00000000E+00
  0.00000000E+00  6.89990666E-02  3.16423961E-01  7.44308291E-01  1.00000000E+00
  0.00000000E+00  0.00000000E+00  0.00000000E+00  0.00000000E+00  0.00000000E+00
  0.00000000E+00  0.00000000E+00  6.89990666E-02  3.16423961E-01  7.44308291E-01
  1.00000000E+00  0.00000000E+00  0.00000000E+00  0.00000000E+00  0.00000000E+00
  0.00000000E+00  0.00000000E+00  0.00000000E+00  0.00000000E+00  0.00000000E+00
  0.00000000E+00  0.00000000E+00  0.00000000E+00  0.00000000E+00  0.00000000E+00
  0.00000000E+00  0.00000000E+00  0.00000000E+00  0.00000000E+00  0.00000000E+00
  0.00000000E+00  0.00000000E+00  0.00000000E+00  0.00000000E+00  0.00000000E+00
  0.00000000E+00
Coordinates of each shell                  R   N=         120
  1.18159985E-05 -1.17376356E+00 -3.54466305E-05  1.18159985E-05 -1.17376356E+00
 -3.54466305E-05  1.18159985E-05 -1.17376356E+00 -3.54466305E-05  1.18159985E-05
 -1.17376356E+00 -3.54466305E-05 -2.39648717E+00  2.26407411E+00 -1.16427702E+00
 -2.39648717E+00  2.26407411E+00 -1.16427702E+00 -2.39648717E+00  2.26407411E+00
 -1.16427702E+00 -2.39648717E+00  2.26407411E+00 -1.16427702E+00  2.39645091E+00
  2.26406170E+00  1.16429416E+00  2.39645091E+00  2.26406170E+00  1.16429416E+00
  2.39645091E+00  2.26406170E+00  1.16429416E+00  2.39645091E+00  2.26406170E+00
  1.16429416E+00 -2.26912105E+00  1.65576980E-01 -2.77205498E-01 -2.26912105E+00
  1.65576980E-01 -2.77205498E-01 -2.26912105E+00  1.65576980E-01 -2.77205498E-01
 -2.26912105E+00  1.65576980E-01 -2.77205498E-01  2.26909731E+00  1.65565111E-01
  2.77196603E-01  2.26909731E+00  1.65565111E-01  2.77196603E-01  2.26909731E+00
  1.65565111E-01  2.77196603E-01  2.26909731E+00  1.65565111E-01  2.77196603E-01
 -4.42317334E+00 -1.46553826E+00  5.84673959E-01 -4.42317334E+00 -1.46553826E+00
  5.84673959E-01 -4.42317334E+00 -1.46553826E+00  5.84673959E-01 -4.42317334E+00
 -1.46553826E+00  5.84673959E-01  4.42320564E+00 -1.46550067E+00 -5.84654117E-01
  4.42320564E+00 -1.46550067E+00 -5.84654117E-01  4.42320564E+00 -1.46550067E+00
 -5.84654117E-01  4.42320564E+00 -1.46550067E+00 -5.84654117E-01 -6.20147546E+00
 -5.05261504E-01  1.93949948E-01 -6.20147546E+00 -5.05261504E-01  1.93949948E-01
 -4.24098031E+00 -1.82759008E+00  2.60991741E+00 -4.24098031E+00 -1.82759008E+00
  2.60991741E+00 -4.35983066E+00 -3.28502594E+00 -3.88165031E-01 -4.35983066E+00
 -3.28502594E+00 -3.88165031E-01  4.35988346E+00 -3.28500404E+00  3.88156197E-01
  4.35988346E+00 -3.28500404E+00  3.88156197E-01  6.20147315E+00 -5.05186089E-01
 -1.93869472E-01  6.20147315E+00 -5.05186089E-01 -1.93869472E-01  4.24107402E+00
 -1.82752934E+00 -2.60990834E+00  4.24107402E+00 -1.82752934E+00 -2.60990834E+00
Constraint Structure                       R   N=          39
  1.18159985E-05 -1.17376356E+00 -3.54466305E-05 -2.39648717E+00  2.26407411E+00
 -1.16427702E+00  2.39645091E+00  2.26406170E+00  1.16429416E+00 -2.26912105E+00
  1.65576980E-01 -2.77205498E-01  2.26909731E+00  1.65565111E-01  2.77196603E-01
 -4.42317334E+00 -1.46553826E+00  5.84673959E-01  4.42320564E+00 -1.46550067E+00
 -5.84654117E-01 -6.20147546E+00 -5.05261504E-01  1.93949948E-01 -4.24098031E+00
 -1.82759008E+00  2.60991741E+00 -4.35983066E+00 -3.28502594E+00 -3.88165031E-01
  4.35988346E+00 -3.28500404E+00  3.88156197E-01  6.20147315E+00 -5.05186089E-01
 -1.93869472E-01  4.24107402E+00 -1.82752934E+00 -2.60990834E+00
Num ILSW                                   I              100
ILSW                                       I   N=         100
           0           1           0           0           2           0
           0           0           0           0           0          -1
           0           0           0           0           0           0
           0           0           0           0           1           0
           1           0           0           0           0           0
           0           0      100000           0          -1           0
           0           0           0           0           0           0
           0           0           0           1           1           0
           0           0           1           0           0           0
           0           0           4          40           0           0
           0           0           0           0           0           0
           0           0           0           0           0           0
           0           0           0           0           0           0
           0           0           0           0           0           0
           0           0           0           0           0           0
           0           0           0           0           0           0
           0           0           0           0
Num RLSW                                   I               40
RLSW                                       R   N=          40
  1.00000000E+00  1.00000000E+00  1.00000000E+00  1.00000000E+00  1.00000000E+00
  0.00000000E+00  0.00000000E+00  1.00000000E+00  0.00000000E+00  0.00000000E+00
  0.00000000E+00  0.00000000E+00  1.00000000E+00  0.00000000E+00  0.00000000E+00
  0.00000000E+00  0.00000000E+00  1.00000000E+00  0.00000000E+00  0.00000000E+00
  0.00000000E+00  0.00000000E+00  1.00000000E+00  0.00000000E+00  0.00000000E+00
  0.00000000E+00  0.00000000E+00  1.00000000E+00  0.00000000E+00  0.00000000E+00
  0.00000000E+00  0.00000000E+00  0.00000000E+00  0.00000000E+00  0.00000000E+00
  0.00000000E+00  0.00000000E+00  0.00000000E+00  1.00000000E+00  1.00000000E+00
MxBond                                     I                4
NBond                                      I   N=          13
           2           1           1           3           3           4
           4           1           1           1           1           1
           1
IBond                                      I   N=          52
           4           5           0           0           4           0
           0           0           5           0           0           0
           1           2           6           0           1           3
           7           0           4           8           9          10
           5          11          12          13           6           0
           0           0           6           0           0           0
           6           0           0           0           7           0
           0           0           7           0           0           0
           7           0           0           0
RBond                                      R   N=          52
  1.50000000E+00  1.50000000E+00  0.00000000E+00  0.00000000E+00  2.00000000E+00
  0.00000000E+00  0.00000000E+00  0.00000000E+00  2.00000000E+00  0.00000000E+00
  0.00000000E+00  0.00000000E+00  1.50000000E+00  2.00000000E+00  1.00000000E+00
  0.00000000E+00  1.50000000E+00  2.00000000E+00  1.00000000E+00  0.00000000E+00
  1.00000000E+00  1.00000000E+00  1.00000000E+00  1.00000000E+00  1.00000000E+00
  1.00000000E+00  1.00000000E+00  1.00000000E+00  1.00000000E+00  0.00000000E+00
  0.00000000E+00  0.00000000E+00  1.00000000E+00  0.00000000E+00  0.00000000E+00
  0.00000000E+00  1.00000000E+00  0.00000000E+00  0.00000000E+00  0.00000000E+00
  1.00000000E+00  0.00000000E+00  0.00000000E+00  0.00000000E+00  1.00000000E+00
  0.00000000E+00  0.00000000E+00  0.00000000E+00  1.00000000E+00  0.00000000E+00
  0.00000000E+00  0.00000000E+00
Virial Ratio                               R      2.003227199157486E+00
SCF Energy                                 R     -3.795763637212541E+02
MP2 Energy                                 R     -3.806184965093301E+02
Total Energy                               R     -3.806184965093301E+02
Post-SCF wavefunction norm                 R      1.625508887501992E+00
RMS Force                                  R      1.669329740716997E-06
RMS Density                                R      7.273232065966871E-10
External E-field                           R   N=          35
  0.00000000E+00  0.00000000E+00  0.00000000E+00  0.00000000E+00  0.00000000E+00
  0.00000000E+00  0.00000000E+00  0.00000000E+00  0.00000000E+00  0.00000000E+00
  0.00000000E+00  0.00000000E+00  0.00000000E+00  0.00000000E+00  0.00000000E+00
  0.00000000E+00  0.00000000E+00  0.00000000E+00  0.00000000E+00  0.00000000E+00
  0.00000000E+00  0.00000000E+00  0.00000000E+00  0.00000000E+00  0.00000000E+00
  0.00000000E+00  0.00000000E+00  0.00000000E+00  0.00000000E+00  0.00000000E+00
  0.00000000E+00  0.00000000E+00  0.00000000E+00  0.00000000E+00  0.00000000E+00
IOpCl                                      I                0
IROHF                                      I                0
Alpha Orbital Energies                     R   N=         117
 -2.06350950E+01 -2.05745778E+01 -2.05745706E+01 -1.14073549E+01 -1.14073440E+01
 -1.12550044E+01 -1.12550012E+01 -1.48526138E+00 -1.40570668E+00 -1.36439818E+00
 -1.05697144E+00 -1.01969929E+00 -8.68910887E-01 -7.37690370E-01 -7.01065610E-01
 -6.95350404E-01 -6.81064009E-01 -6.25828865E-01 -6.20916203E-01 -5.99416486E-01
 -5.82594960E-01 -5.78478885E-01 -5.56747538E-01 -5.16853175E-01 -4.77302798E-01
 -4.76508912E-01 -4.41641324E-01  1.41437327E-01  1.86392962E-01  2.36659501E-01
  2.47681198E-01  2.83021903E-01  2.97463726E-01  3.11538473E-01  3.16013838E-01
  3.60976692E-01  3.92456496E-01  4.38391920E-01  4.69258663E-01  4.75023719E-01
  5.42869128E-01  7.12599729E-01  7.35273490E-01  7.39256751E-01  7.64722007E-01
  7.72996737E-01  7.91586053E-01  8.05970832E-01  8.12724731E-01  8.68044102E-01
  9.28416379E-01  9.33059242E-01  9.62089446E-01  1.02664798E+00  1.05761854E+00
  1.07767908E+00  1.10829817E+00  1.10976503E+00  1.12950481E+00  1.15871623E+00
  1.17234201E+00  1.18710531E+00  1.20224602E+00  1.24380658E+00  1.27232771E+00
  1.30462774E+00  1.34856821E+00  1.37955651E+00  1.39504798E+00  1.43423146E+00
  1.47221490E+00  1.63950029E+00  1.64779967E+00  1.65202583E+00  1.74437857E+00
  1.80553288E+00  1.82842892E+00  1.89016618E+00  1.90161046E+00  1.99079144E+00
  2.03839244E+00  2.06332163E+00  2.07512330E+00  2.09399847E+00  2.13131669E+00
  2.17535967E+00  2.18010995E+00  2.21339851E+00  2.23318717E+00  2.27827024E+00
  2.34668841E+00  2.35145646E+00  2.48786836E+00  2.51128625E+00  2.51470639E+00
  2.54024908E+00  2.69223183E+00  2.69874314E+00  2.71770555E+00  2.75312754E+00
  2.86051581E+00  2.90160600E+00  2.92417632E+00  3.06606043E+00  3.11745844E+00
  3.17844244E+00  3.32059499E+00  3.32731504E+00  3.41495205E+00  3.55587473E+00
  4.39929858E+00  4.43941071E+00  4.49365988E+00  4.55400829E+00  4.63953956E+00
  4.79708734E+00  4.91709826E+00
Alpha MO coefficients                      R   N=       13689
  9.94630669E-01  2.12157308E-02  2.16389033E-08  1.11713396E-03  3.03764127E-08
  4.01009029E-03  7.14069836E-09 -6.89840093E-04 -1.27313732E-08 -4.24610787E-03
 -4.11037933E-03 -3.97299408E-03  1.07360320E-08 -5.36835844E-05 -2.86622213E-09
 -2.32806827E-04  5.01670878E-05 -2.09555067E-05  2.52599524E-05 -3.09824979E-06
 -3.19269637E-04 -7.55783514E-05  8.24465410E-05 -6.77536723E-05  1.22313058E-05
 -5.38629604E-06  1.79862981E-05  4.94528414E-05 -1.89705007E-05  1.74390525E-05
 -2.32787995E-04  5.01641994E-05  2.09571354E-05  2.52603717E-05  3.09927863E-06
 -3.19258999E-04  7.55774244E-05  8.24381982E-05  6.77501288E-05  1.22307761E-05
 -5.38471072E-06  1.79826929E-05 -4.94576722E-05 -1.89739021E-05 -1.74365953E-05
 -2.16323884E-06  2.81383480E-04  3.14881979E-04 -1.63201119E-04  2.60925560E-05
  4.30766511E-05  4.94258112E-05  2.70119339E-04 -4.84855479E-06  7.47454737E-05
  2.91899032E-05 -2.79310423E-05 -3.09561434E-05  5.28144596E-06 -3.33488363E-05
 -2.16124855E-06  2.81423967E-04 -3.14881755E-04 -1.63206042E-04 -2.61032469E-05
  4.30526450E-05 -4.94091739E-05  2.70126976E-04  4.85836228E-06  7.47060648E-05
  2.91760802E-05 -2.79342252E-05  3.09320612E-05  5.27791639E-06  3.33471572E-05
  4.78580778E-06  7.04072760E-05  1.12781572E-05 -1.00755957E-05  1.16710607E-05
  8.41520402E-05 -2.08160425E-04  4.57972535E-05 -8.25413447E-05 -6.79598533E-05
 -1.96733021E-06 -6.88219191E-06 -1.86332378E-05  1.36834780E-05 -6.96499687E-06
  4.78557823E-06  7.04063182E-05 -1.12764588E-05 -1.00757448E-05 -1.16711082E-05
  8.41524576E-05  2.08152326E-04  4.57998812E-05  8.25421809E-05 -6.79626911E-05
 -1.96575716E-06 -6.88192631E-06  1.86322449E-05  1.36823565E-05  6.96622068E-06
 -1.37539721E-05 -1.44347230E-04  3.23457034E-05  1.82425673E-05  4.24562613E-05
 -8.14020121E-05  4.24546166E-05 -8.13958510E-05 -1.37534664E-05 -1.44347661E-04
  3.23453441E-05  1.82397837E-05  1.87926087E-04 -1.90456460E-05  2.21068054E-05
 -2.26643075E-05  1.08217017E-05  2.96610123E-05 -4.34195305E-05  3.98957632E-05
  4.99108248E-06  6.10666606E-05 -5.50446754E-05 -4.01988476E-05  2.78810826E-05
 -1.66432420E-05  1.76350431E-05  9.74352014E-01  2.05584725E-02  9.98948068E-05
 -1.47491329E-03  6.13701217E-04  4.41481308E-03  1.92515556E-05  3.78010972E-06
  4.71879290E-06 -3.82737780E-03 -3.55332468E-03 -3.98552105E-03 -2.12599276E-05
 -1.10377796E-05 -2.52845972E-04 -2.00144964E-01 -4.21882147E-03  1.10571919E-05
  3.00467262E-04  1.16904263E-04 -8.64347833E-04  2.54713054E-05 -3.87217917E-05
  8.19595245E-06  7.91493933E-04  7.53357814E-04  8.33172142E-04 -6.22898516E-06
 -8.49677909E-06 -4.89248266E-05 -5.47641152E-06  4.57069021E-04  1.79659545E-06
 -1.08182568E-04  4.22673797E-05 -3.18176965E-04 -1.99410499E-05 -4.49677576E-04
  2.09725286E-04 -6.09135897E-05 -7.24019308E-04 -1.52661024E-04  5.49273460E-05
 -1.93769807E-05  3.38760711E-04  1.15359245E-06 -8.70656705E-05 -2.43404027E-07
  3.37402741E-05  5.85902570E-06  3.23831048E-05  4.84712251E-05 -1.60158847E-07
  1.18288381E-05  5.53228958E-06  1.29233302E-04  3.29949557E-05 -1.21262973E-05
 -7.28435712E-06  5.43303661E-05  1.89049020E-06 -2.52592193E-07  2.64537114E-05
 -1.42358616E-05  6.44506454E-06 -1.06605936E-04 -1.21880814E-04 -2.49421038E-05
  3.93872541E-06  6.58303699E-05 -4.04554414E-05 -1.56122805E-05 -4.62859130E-07
 -7.52647175E-06  1.53390380E-05 -4.16718833E-07  1.49474482E-06  1.11061204E-05
 -4.56770839E-07  1.59092495E-06 -3.32513615E-05 -7.55775390E-06 -8.47988960E-07
 -1.67152123E-05 -1.59912341E-05  6.28055836E-06  1.94950381E-06  1.75176955E-06
  3.14912333E-06  3.03627553E-06  3.88714136E-06 -6.01860274E-05  1.54551647E-05
 -2.06366581E-05  1.24642790E-05 -3.02615965E-05 -1.61311620E-06  1.29900557E-05
  4.95712150E-07  1.41903807E-05 -3.49509277E-06 -1.25890041E-06  2.85066625E-04
 -2.88976721E-05 -1.45702765E-05 -3.43836018E-05 -7.13464743E-06  4.50159558E-05
  2.86371415E-05  6.05255954E-05 -3.28737279E-06  9.26525760E-05 -8.35097382E-05
 -6.09890077E-05 -1.83763386E-05 -2.52466733E-05 -1.16253265E-05  2.00151240E-01
  4.22765034E-03  3.08157168E-05 -3.05691214E-04  1.36033269E-04  9.53132826E-04
 -1.94627417E-05 -4.05055213E-05 -6.89579270E-06 -7.80450758E-04 -7.04402798E-04
 -8.02932208E-04 -2.33863319E-06 -1.39799073E-05 -5.52171658E-05  9.74353305E-01
  2.05602854E-02 -1.03947213E-04 -1.47596192E-03 -6.17639747E-04  4.43299425E-03
 -1.00189117E-05 -1.24725172E-05 -1.60959614E-06 -3.82509989E-03 -3.54328502E-03
 -3.97929822E-03  2.04536787E-05 -1.56522864E-05  2.54132652E-04 -1.09349961E-06
  1.01320516E-04  1.03285209E-06 -9.68508240E-06  1.17542814E-05 -1.01238352E-04
 -6.12826727E-05 -1.93046395E-04  7.70787312E-05 -2.01111009E-05 -1.69931954E-04
 -2.95798710E-05  3.67558619E-05 -1.62372885E-05  8.61857834E-05 -5.46334549E-06
  4.60009125E-04 -2.05195843E-06 -1.03218594E-04 -4.34707919E-05 -3.32318699E-04
  4.25000008E-05 -4.89327827E-04 -2.23118468E-04 -6.39097317E-05 -7.32358327E-04
 -1.51964689E-04 -6.49683248E-05 -2.42101902E-05 -3.45302916E-04  3.56894253E-07
  1.51640558E-06 -7.38492066E-07 -6.60394560E-06  1.03362167E-06 -8.18887695E-05
 -4.40486227E-05 -1.16171442E-05  1.98775870E-05  1.08351152E-05 -1.05198509E-05
 -4.57661470E-06 -2.10586636E-06  1.99229368E-07  3.27590874E-06  1.87767081E-06
  3.68735787E-07 -2.40169592E-05 -1.56892650E-05 -6.33277640E-06 -1.30236583E-04
  1.29373775E-04 -2.75012238E-05 -1.14528220E-05  6.47639162E-05 -4.13297014E-05
 -1.61541592E-05  1.26222983E-06 -6.83376031E-06 -1.53904644E-05  2.20626019E-06
 -1.03762813E-05  2.82531562E-06 -1.02235962E-05  3.59042584E-06  1.15454620E-06
  1.28699951E-05 -2.73576834E-05  4.44295580E-06 -5.94090432E-05  1.53168846E-05
 -2.29962165E-05 -1.33349948E-05  1.97275233E-04 -2.18122734E-04  6.08831489E-05
  4.86115160E-07 -4.27545767E-04  1.22818829E-03 -4.85704278E-04  1.79184640E-04
 -1.20707888E-04 -2.51167516E-05  1.38023037E-04  6.53320367E-04 -4.47357610E-05
  1.50712822E-04 -2.86475532E-04  3.79173001E-04  6.68920867E-05 -2.66658195E-04
  1.09216633E-04 -1.43803405E-03 -4.08820137E-04  9.80948151E-04 -3.42245315E-04
  2.54785075E-05  1.05543546E-04  2.59606248E-04  1.03121559E-04 -3.33867532E-05
  6.39944030E-05  2.14911803E-04 -1.42140152E-04  4.92545258E-05  1.89582302E-04
  7.25593447E-05  1.30270655E-04 -9.92102491E-05 -4.70760622E-04 -1.20677547E-04
  4.45547899E-05 -3.03486668E-05 -1.35195980E-04  4.31685636E-05  7.53083714E-06
  3.56368846E-05  8.26913127E-01  2.14402198E-02  9.91939001E-04 -6.87429879E-05
 -6.61647259E-05 -5.57237891E-03  4.94033876E-04  1.41288673E-03 -8.77406466E-04
 -1.10993260E-03 -6.52579468E-04 -1.59360253E-03 -1.62353537E-04 -4.94891967E-05
 -5.41767810E-04 -5.55002926E-01 -1.44169722E-02  6.81686538E-04  2.73626541E-05
 -5.70933501E-05  3.97464166E-03 -4.82725135E-04 -2.28337061E-04 -3.17753154E-04
  8.50934401E-04  4.85698295E-04  1.07645137E-03 -9.34008008E-05  5.18413358E-05
 -3.30936810E-04  1.65693792E-03  6.41793830E-05 -1.58749141E-04 -6.57082754E-05
  2.70945661E-05  2.22279558E-03  1.33588907E-03  5.13831266E-04 -1.88570066E-04
 -3.10837570E-04 -2.26437295E-04 -1.22384496E-04 -1.37474783E-04  8.54917599E-05
  8.56099498E-05 -1.11046391E-03 -5.98259509E-05 -1.53587861E-04  4.67962762E-05
  1.93053083E-05 -8.03785886E-04  7.99206080E-04 -1.17360020E-04  3.38105707E-05
  2.05578470E-04  1.52525591E-04  8.11181654E-05 -9.02136593E-05 -5.53080721E-05
  6.53154064E-05 -2.76718462E-05  3.15488186E-04 -1.49832112E-04  1.24519061E-04
 -1.40376630E-04  2.12196639E-04  1.05663406E-04 -1.78497235E-04 -1.53982217E-05
 -3.03993791E-04  9.42421432E-05 -3.29131349E-05 -6.78060015E-05  1.00273379E-03
  4.29043467E-05  3.09427929E-04 -9.00236802E-08 -2.17374250E-03 -2.41739580E-04
 -2.46885084E-03 -3.53160726E-05 -6.13499496E-04 -1.27627702E-04  7.01538003E-04
 -1.28546559E-04 -2.27463789E-04 -2.96754297E-05 -1.32523984E-04  5.51048481E-04
  3.34052744E-05 -1.50975799E-04  7.52785642E-05 -3.16881571E-03 -7.36819725E-04