
    -----------------------------------------------------------------------
          Psi4: An Open-Source Ab Initio Electronic Structure Package
                               Psi4 1.4a3.dev225 

                         Git: Rev {master} 7105e37 


    D. G. A. Smith, L. A. Burns, A. C. Simmonett, R. M. Parrish,
    M. C. Schieber, R. Galvelis, P. Kraus, H. Kruse, R. Di Remigio,
    A. Alenaizan, A. M. James, S. Lehtola, J. P. Misiewicz, M. Scheurer,
    R. A. Shaw, J. B. Schriber, Y. Xie, Z. L. Glick, D. A. Sirianni,
    J. S. O'Brien, J. M. Waldrop, A. Kumar, E. G. Hohenstein,
    B. P. Pritchard, B. R. Brooks, H. F. Schaefer III, A. Yu. Sokolov,
    K. Patkowski, A. E. DePrince III, U. Bozkaya, R. A. King,
    F. A. Evangelista, J. M. Turney, T. D. Crawford, C. D. Sherrill,
    J. Chem. Phys. 152(18) 184108 (2020). https://doi.org/10.1063/5.0006002

                            Additional Code Authors
    E. T. Seidl, C. L. Janssen, E. F. Valeev, M. L. Leininger,
    J. F. Gonthier, R. M. Richard, H. R. McAlexander, M. Saitow, X. Wang,
    P. Verma, and M. H. Lechner

             Previous Authors, Complete List of Code Contributors,
                       and Citations for Specific Modules
    https://github.com/psi4/psi4/blob/master/codemeta.json
    https://github.com/psi4/psi4/graphs/contributors
    http://psicode.org/psi4manual/master/introduction.html#citing-psifour

    -----------------------------------------------------------------------


    Psi4 started on: Saturday, 27 February 2021 03:36PM

    Process ID: 156662
    Host:       c404-133.stampede2.tacc.utexas.edu
    PSIDATADIR: /home1/07844/xy3866/miniconda3/envs/p4env/share/psi4
    Memory:     500.0 MiB
    Threads:    32
    
  ==> Input File <==

--------------------------------------------------------------------------
#psi4
#
memory 32 gb

molecule  {
0 1
  O        0.3703410     1.7406370     0.1509160
  O       -2.1946130     0.9173750    -0.9921890
  N       -2.7284513    -0.4272359     0.7675788
  C       -0.4510660    -0.4506100    -0.0514270
  C        0.6599990     0.4108460     0.0342650
  C       -0.2507290    -1.8313420    -0.1181570
  C        1.9527030    -0.1242260     0.0401840
  C        1.0395390    -2.3670290    -0.1196300
  C        2.1335050    -1.5087060    -0.0439110
  C       -1.8406380     0.1093760    -0.1384300
  C        1.4719710     2.6442150     0.1686120
  H       -1.1182000    -2.4830940    -0.1949200
  H        2.8227340     0.5195950     0.1104450
  H        1.1860280    -3.4416730    -0.1864270
  H        3.1441970    -1.9102760    -0.0447980
  H        2.0722720     2.5548100    -0.7428660
  H        2.1083110     2.4835370     1.0460470
  H        1.0258210     3.6366650     0.2171830
  H       -2.3391320    -0.8271260     1.6334900
  H       -3.6232280    -0.0028870     0.8299490
units angstrom
no_reorient  #important for SAPT in psi4, default
symmetry c1  #important for SAPT in psi4, default
}

set PROPERTIES_ORIGIN ["COM"]
properties('MP2/aug-cc-pvtz', properties = ['dipole'])
--------------------------------------------------------------------------

  Memory set to  29.802 GiB by Python driver.
    SCF Algorithm Type (re)set to DF.

*** tstart() called on c404-133.stampede2.tacc.utexas.edu
*** at Sat Feb 27 15:36:14 2021

   => Loading Basis Set <=

    Name: AUG-CC-PVTZ
    Role: ORBITAL
    Keyword: BASIS
    atoms 1-2   entry O          line   331 file /home1/07844/xy3866/miniconda3/envs/p4env/share/psi4/basis/aug-cc-pvtz.gbs 
    atoms 3     entry N          line   285 file /home1/07844/xy3866/miniconda3/envs/p4env/share/psi4/basis/aug-cc-pvtz.gbs 
    atoms 4-11  entry C          line   239 file /home1/07844/xy3866/miniconda3/envs/p4env/share/psi4/basis/aug-cc-pvtz.gbs 
    atoms 12-20 entry H          line    40 file /home1/07844/xy3866/miniconda3/envs/p4env/share/psi4/basis/aug-cc-pvtz.gbs 


         ---------------------------------------------------------
                                   SCF
               by Justin Turney, Rob Parrish, Andy Simmonett
                          and Daniel G. A. Smith
                              RHF Reference
                       32 Threads,  30517 MiB Core
         ---------------------------------------------------------

  ==> Geometry <==

    Molecular point group: c1
    Full point group: C1

    Geometry (in Angstrom), charge = 0, multiplicity = 1:

       Center              X                  Y                   Z               Mass       
    ------------   -----------------  -----------------  -----------------  -----------------
         O            0.406632154206     1.742913913775     0.169190283381    15.994914619570
         O           -2.158321845794     0.919651913775    -0.973914716619    15.994914619570
         N           -2.692160145794    -0.424958986225     0.785853083381    14.003074004430
         C           -0.414774845794    -0.448333086225    -0.033152716619    12.000000000000
         C            0.696290154206     0.413122913775     0.052539283381    12.000000000000
         C           -0.214437845794    -1.829065086225    -0.099882716619    12.000000000000
         C            1.988994154206    -0.121949086225     0.058458283381    12.000000000000
         C            1.075830154206    -2.364752086225    -0.101355716619    12.000000000000
         C            2.169796154206    -1.506429086225    -0.025636716619    12.000000000000
         C           -1.804346845794     0.111652913775    -0.120155716619    12.000000000000
         C            1.508262154206     2.646491913775     0.186886283381    12.000000000000
         H           -1.081908845794    -2.480817086225    -0.176645716619     1.007825032230
         H            2.859025154206     0.521871913775     0.128719283381     1.007825032230
         H            1.222319154206    -3.439396086225    -0.168152716619     1.007825032230
         H            3.180488154206    -1.907999086225    -0.026523716619     1.007825032230
         H            2.108563154206     2.557086913775    -0.724591716619     1.007825032230
         H            2.144602154206     2.485813913775     1.064321283381     1.007825032230
         H            1.062112154206     3.638941913775     0.235457283381     1.007825032230
         H           -2.302840845794    -0.824849086225     1.651764283381     1.007825032230
         H           -3.586936845794    -0.000610086225     0.848223283381     1.007825032230

  Running in c1 symmetry.

  Rotational constants: A =      0.04607  B =      0.03723  C =      0.02224 [cm^-1]
  Rotational constants: A =   1381.05705  B =   1116.08493  C =    666.76759 [MHz]
  Nuclear repulsion =  592.529726283912737

  Charge       = 0
  Multiplicity = 1
  Electrons    = 80
  Nalpha       = 40
  Nbeta        = 40

  ==> Algorithm <==

  SCF Algorithm Type is DF.
  DIIS enabled.
  MOM disabled.
  Fractional occupation disabled.
  Guess Type is SAD.
  Energy threshold   = 1.00e-10
  Density threshold  = 1.00e-10
  Integral threshold = 1.00e-12

  ==> Primary Basis <==

  Basis Set: AUG-CC-PVTZ
    Blend: AUG-CC-PVTZ
    Number of shells: 235
    Number of basis functions: 713
    Number of Cartesian functions: 830
    Spherical Harmonics?: true
    Max angular momentum: 3

   => Loading Basis Set <=

    Name: (AUG-CC-PVTZ AUX)
    Role: JKFIT
    Keyword: DF_BASIS_SCF
    atoms 1-2   entry O          line   286 file /home1/07844/xy3866/miniconda3/envs/p4env/share/psi4/basis/aug-cc-pvtz-jkfit.gbs 
    atoms 3     entry N          line   224 file /home1/07844/xy3866/miniconda3/envs/p4env/share/psi4/basis/aug-cc-pvtz-jkfit.gbs 
    atoms 4-11  entry C          line   162 file /home1/07844/xy3866/miniconda3/envs/p4env/share/psi4/basis/aug-cc-pvtz-jkfit.gbs 
    atoms 12-20 entry H          line    70 file /home1/07844/xy3866/miniconda3/envs/p4env/share/psi4/basis/aug-cc-pvtz-jkfit.gbs 

  ==> Integral Setup <==

  DFHelper Memory: AOs need 5.497 GiB; user supplied 22.352 GiB. Using in-core AOs.

  ==> MemDFJK: Density-Fitted J/K Matrices <==

    J tasked:                   Yes
    K tasked:                   Yes
    wK tasked:                   No
    OpenMP threads:              32
    Memory [MiB]:             22888
    Algorithm:                 Core
    Schwarz Cutoff:           1E-12
    Mask sparsity (%):      10.9464
    Fitting Condition:        1E-10

   => Auxiliary Basis Set <=

  Basis Set: (AUG-CC-PVTZ AUX)
    Blend: AUG-CC-PVTZ-JKFIT
    Number of shells: 456
    Number of basis functions: 1558
    Number of Cartesian functions: 1936
    Spherical Harmonics?: true
    Max angular momentum: 4

  Minimum eigenvalue in the overlap matrix is 5.5540469090E-07.
  Reciprocal condition number of the overlap matrix is 2.9290617657E-08.
    Using symmetric orthogonalization.

  ==> Pre-Iterations <==

  SCF Guess: Superposition of Atomic Densities via on-the-fly atomic UHF (no occupation information).

   -------------------------
    Irrep   Nso     Nmo    
   -------------------------
     A        713     713 
   -------------------------
    Total     713     713
   -------------------------

  ==> Iterations <==

                           Total Energy        Delta E     RMS |[F,P]|

   @DF-RHF iter SAD:  -511.61120751205851   -5.11611e+02   0.00000e+00 
   @DF-RHF iter   1:  -512.23164511689242   -6.20438e-01   1.07798e-03 DIIS
   @DF-RHF iter   2:  -512.47576585079105   -2.44121e-01   5.82146e-04 DIIS
   @DF-RHF iter   3:  -512.53937719752594   -6.36113e-02   1.30303e-04 DIIS
   @DF-RHF iter   4:  -512.54390570461067   -4.52851e-03   5.78492e-05 DIIS
   @DF-RHF iter   5:  -512.54481246691773   -9.06762e-04   1.00954e-05 DIIS
   @DF-RHF iter   6:  -512.54487654950765   -6.40826e-05   4.64825e-06 DIIS
   @DF-RHF iter   7:  -512.54489034575272   -1.37962e-05   2.02817e-06 DIIS
   @DF-RHF iter   8:  -512.54489325557529   -2.90982e-06   7.81543e-07 DIIS
   @DF-RHF iter   9:  -512.54489368843269   -4.32857e-07   3.01467e-07 DIIS
   @DF-RHF iter  10:  -512.54489375534774   -6.69150e-08   1.07912e-07 DIIS
   @DF-RHF iter  11:  -512.54489376514550   -9.79776e-09   3.55369e-08 DIIS
   @DF-RHF iter  12:  -512.54489376641311   -1.26761e-09   1.99298e-08 DIIS
   @DF-RHF iter  13:  -512.54489376671336   -3.00247e-10   8.18170e-09 DIIS
   @DF-RHF iter  14:  -512.54489376679703   -8.36735e-11   3.71388e-09 DIIS
   @DF-RHF iter  15:  -512.54489376681602   -1.89857e-11   1.62003e-09 DIIS
   @DF-RHF iter  16:  -512.54489376681681   -7.95808e-13   5.62041e-10 DIIS
   @DF-RHF iter  17:  -512.54489376681704   -2.27374e-13   2.19563e-10 DIIS
   @DF-RHF iter  18:  -512.54489376681772   -6.82121e-13   6.86136e-11 DIIS
  Energy and wave function converged.


  ==> Post-Iterations <==

    Orbital Energies [Eh]
    ---------------------

    Doubly Occupied:                                                      

       1A    -20.590580     2A    -20.516044     3A    -15.581986  
       4A    -11.354526     5A    -11.317937     6A    -11.287802  
       7A    -11.255855     8A    -11.254515     9A    -11.249132  
      10A    -11.243064    11A    -11.238757    12A     -1.414119  
      13A     -1.369371    14A     -1.206363    15A     -1.158422  
      16A     -1.043443    17A     -1.025048    18A     -0.949774  
      19A     -0.877978    20A     -0.824823    21A     -0.789537  
      22A     -0.732266    23A     -0.708820    24A     -0.683159  
      25A     -0.668247    26A     -0.657595    27A     -0.639507  
      28A     -0.623280    29A     -0.596347    30A     -0.581999  
      31A     -0.558416    32A     -0.543724    33A     -0.530608  
      34A     -0.518937    35A     -0.500589    36A     -0.476024  
      37A     -0.423431    38A     -0.410572    39A     -0.352739  
      40A     -0.323162  

    Virtual:                                                              

      41A      0.024377    42A      0.029220    43A      0.031508  
      44A      0.041665    45A      0.045216    46A      0.049158  
      47A      0.053895    48A      0.061327    49A      0.074369  
      50A      0.078022    51A      0.089521    52A      0.098128  
      53A      0.099596    54A      0.101755    55A      0.108080  
      56A      0.112126    57A      0.116120    58A      0.118596  
      59A      0.122282    60A      0.126047    61A      0.126573  
      62A      0.132812    63A      0.135480    64A      0.138387  
      65A      0.144414    66A      0.144711    67A      0.152679  
      68A      0.154122    69A      0.158264    70A      0.158516  
      71A      0.170579    72A      0.171626    73A      0.175965  
      74A      0.179898    75A      0.184485    76A      0.189090  
      77A      0.196468    78A      0.198615    79A      0.205313  
      80A      0.211885    81A      0.220389    82A      0.233624  
      83A      0.241398    84A      0.245055    85A      0.246541  
      86A      0.252916    87A      0.258223    88A      0.264706  
      89A      0.267668    90A      0.274637    91A      0.283456  
      92A      0.285382    93A      0.291532    94A      0.299884  
      95A      0.302042    96A      0.303015    97A      0.305944  
      98A      0.315138    99A      0.318852   100A      0.320325  
     101A      0.326368   102A      0.330175   103A      0.333291  
     104A      0.336823   105A      0.338016   106A      0.345763  
     107A      0.351488   108A      0.354768   109A      0.360585  
     110A      0.366156   111A      0.368980   112A      0.372848  
     113A      0.376113   114A      0.382395   115A      0.392216  
     116A      0.395920   117A      0.401041   118A      0.405811  
     119A      0.409360   120A      0.415259   121A      0.423476  
     122A      0.427476   123A      0.430478   124A      0.434649  
     125A      0.439346   126A      0.441998   127A      0.442704  
     128A      0.445048   129A      0.446854   130A      0.457437  
     131A      0.462098   132A      0.469698   133A      0.477609  
     134A      0.480777   135A      0.484701   136A      0.487088  
     137A      0.489016   138A      0.494355   139A      0.500328  
     140A      0.501536   141A      0.508482   142A      0.509556  
     143A      0.514979   144A      0.522025   145A      0.524443  
     146A      0.532991   147A      0.536222   148A      0.540440  
     149A      0.543183   150A      0.549756   151A      0.554455  
     152A      0.558713   153A      0.559962   154A      0.571160  
     155A      0.572957   156A      0.581420   157A      0.585377  
     158A      0.589503   159A      0.598544   160A      0.603341  
     161A      0.610121   162A      0.617210   163A      0.618254  
     164A      0.624843   165A      0.637964   166A      0.642489  
     167A      0.648279   168A      0.665253   169A      0.667373  
     170A      0.675405   171A      0.680788   172A      0.690053  
     173A      0.692865   174A      0.696823   175A      0.702892  
     176A      0.710692   177A      0.719228   178A      0.727313  
     179A      0.731554   180A      0.740968   181A      0.756244  
     182A      0.760669   183A      0.769472   184A      0.771399  
     185A      0.774694   186A      0.782578   187A      0.786919  
     188A      0.790599   189A      0.799829   190A      0.819493  
     191A      0.825189   192A      0.828012   193A      0.834193  
     194A      0.837812   195A      0.841194   196A      0.858874  
     197A      0.859877   198A      0.867472   199A      0.870573  
     200A      0.879682   201A      0.880704   202A      0.882868  
     203A      0.891977   204A      0.893655   205A      0.897580  
     206A      0.902513   207A      0.907090   208A      0.912000  
     209A      0.912778   210A      0.923820   211A      0.928159  
     212A      0.933026   213A      0.938936   214A      0.941067  
     215A      0.949067   216A      0.953856   217A      0.962643  
     218A      0.967653   219A      0.973622   220A      0.984221  
     221A      0.989699   222A      0.999404   223A      1.003921  
     224A      1.005119   225A      1.008365   226A      1.014283  
     227A      1.018414   228A      1.020404   229A      1.030039  
     230A      1.034059   231A      1.038543   232A      1.048736  
     233A      1.052473   234A      1.060354   235A      1.065351  
     236A      1.067604   237A      1.075606   238A      1.077885  
     239A      1.082585   240A      1.092437   241A      1.097727  
     242A      1.099912   243A      1.105266   244A      1.110993  
     245A      1.113085   246A      1.122151   247A      1.123491  
     248A      1.130775   249A      1.137070   250A      1.146317  
     251A      1.147621   252A      1.153321   253A      1.162164  
     254A      1.165712   255A      1.168295   256A      1.177252  
     257A      1.182232   258A      1.187461   259A      1.196301  
     260A      1.202885   261A      1.208029   262A      1.213947  
     263A      1.220158   264A      1.222066   265A      1.234311  
     266A      1.238931   267A      1.244660   268A      1.246713  
     269A      1.255889   270A      1.261518   271A      1.270311  
     272A      1.277506   273A      1.284678   274A      1.285193  
     275A      1.293244   276A      1.302203   277A      1.307072  
     278A      1.308900   279A      1.314916   280A      1.320376  
     281A      1.333775   282A      1.341310   283A      1.344959  
     284A      1.353693   285A      1.365893   286A      1.377153  
     287A      1.380923   288A      1.393257   289A      1.400065  
     290A      1.413114   291A      1.428404   292A      1.437245  
     293A      1.443464   294A      1.455877   295A      1.460738  
     296A      1.466987   297A      1.471392   298A      1.491112  
     299A      1.494402   300A      1.503508   301A      1.509068  
     302A      1.514905   303A      1.523882   304A      1.525443  
     305A      1.530301   306A      1.542663   307A      1.550557  
     308A      1.560162   309A      1.569977   310A      1.576311  
     311A      1.581189   312A      1.592654   313A      1.598826  
     314A      1.608085   315A      1.618269   316A      1.632658  
     317A      1.646241   318A      1.648171   319A      1.663650  
     320A      1.669079   321A      1.674290   322A      1.684775  
     323A      1.687180   324A      1.691229   325A      1.696833  
     326A      1.700756   327A      1.716036   328A      1.731638  
     329A      1.734379   330A      1.750294   331A      1.758612  
     332A      1.767167   333A      1.778177   334A      1.781112  
     335A      1.786307   336A      1.796267   337A      1.806810  
     338A      1.814401   339A      1.824743   340A      1.839217  
     341A      1.842063   342A      1.846459   343A      1.855905  
     344A      1.856930   345A      1.875719   346A      1.877910  
     347A      1.888599   348A      1.891665   349A      1.899483  
     350A      1.906979   351A      1.910579   352A      1.929111  
     353A      1.936498   354A      1.949459   355A      1.966633  
     356A      1.981960   357A      1.992066   358A      2.001891  
     359A      2.009081   360A      2.018790   361A      2.023871  
     362A      2.027697   363A      2.040320   364A      2.047515  
     365A      2.056434   366A      2.068159   367A      2.070322  
     368A      2.078128   369A      2.086780   370A      2.100870  
     371A      2.105899   372A      2.118196   373A      2.123500  
     374A      2.126622   375A      2.133933   376A      2.150112  
     377A      2.154668   378A      2.163366   379A      2.182552  
     380A      2.194653   381A      2.198171   382A      2.202246  
     383A      2.215948   384A      2.232256   385A      2.240325  
     386A      2.243819   387A      2.261235   388A      2.263954  
     389A      2.288547   390A      2.294441   391A      2.303715  
     392A      2.321018   393A      2.327187   394A      2.343814  
     395A      2.357232   396A      2.378731   397A      2.393444  
     398A      2.395143   399A      2.418763   400A      2.429304  
     401A      2.436893   402A      2.447622   403A      2.457238  
     404A      2.467767   405A      2.476541   406A      2.487694  
     407A      2.506173   408A      2.517654   409A      2.527907  
     410A      2.532454   411A      2.558362   412A      2.571041  
     413A      2.593300   414A      2.594632   415A      2.613400  
     416A      2.615359   417A      2.633525   418A      2.653817  
     419A      2.666543   420A      2.688105   421A      2.693954  
     422A      2.709205   423A      2.725999   424A      2.730342  
     425A      2.738866   426A      2.759888   427A      2.770653  
     428A      2.783539   429A      2.804848   430A      2.814135  
     431A      2.823477   432A      2.836561   433A      2.848096  
     434A      2.876948   435A      2.885954   436A      2.921056  
     437A      2.951437   438A      2.971531   439A      2.988441  
     440A      3.005825   441A      3.033220   442A      3.062649  
     443A      3.071207   444A      3.082007   445A      3.095121  
     446A      3.109609   447A      3.117912   448A      3.121501  
     449A      3.154145   450A      3.180131   451A      3.209121  
     452A      3.240283   453A      3.252682   454A      3.267058  
     455A      3.285154   456A      3.315255   457A      3.327593  
     458A      3.348001   459A      3.372445   460A      3.384794  
     461A      3.406029   462A      3.408384   463A      3.414884  
     464A      3.421657   465A      3.436460   466A      3.445340  
     467A      3.463178   468A      3.469195   469A      3.478863  
     470A      3.486992   471A      3.505182   472A      3.514103  
     473A      3.524159   474A      3.532125   475A      3.536059  
     476A      3.554684   477A      3.562986   478A      3.575858  
     479A      3.581119   480A      3.596398   481A      3.608467  
     482A      3.622712   483A      3.644322   484A      3.656068  
     485A      3.668348   486A      3.671957   487A      3.697168  
     488A      3.699391   489A      3.707561   490A      3.714635  
     491A      3.735095   492A      3.742306   493A      3.760828  
     494A      3.763696   495A      3.781735   496A      3.786709  
     497A      3.802669   498A      3.814257   499A      3.821142  
     500A      3.833294   501A      3.839315   502A      3.843903  
     503A      3.854362   504A      3.866491   505A      3.882281  
     506A      3.890800   507A      3.901078   508A      3.909365  
     509A      3.914714   510A      3.927289   511A      3.930891  
     512A      3.942490   513A      3.953783   514A      3.968697  
     515A      3.980127   516A      3.987600   517A      4.004531  
     518A      4.020812   519A      4.029674   520A      4.038741  
     521A      4.039787   522A      4.051258   523A      4.057847  
     524A      4.076457   525A      4.080627   526A      4.089473  
     527A      4.101387   528A      4.116866   529A      4.142821  
     530A      4.148776   531A      4.152362   532A      4.173178  
     533A      4.186127   534A      4.213324   535A      4.221455  
     536A      4.237234   537A      4.245437   538A      4.254417  
     539A      4.268511   540A      4.285328   541A      4.286737  
     542A      4.305276   543A      4.311529   544A      4.314662  
     545A      4.334123   546A      4.341533   547A      4.355095  
     548A      4.364100   549A      4.376879   550A      4.381553  
     551A      4.384468   552A      4.400270   553A      4.403269  
     554A      4.412829   555A      4.425723   556A      4.431858  
     557A      4.445070   558A      4.453586   559A      4.464393  
     560A      4.469713   561A      4.477226   562A      4.490248  
     563A      4.508586   564A      4.525014   565A      4.537033  
     566A      4.557206   567A      4.570576   568A      4.585128  
     569A      4.598120   570A      4.611183   571A      4.637037  
     572A      4.648765   573A      4.666207   574A      4.673269  
     575A      4.692426   576A      4.706517   577A      4.720139  
     578A      4.722669   579A      4.728349   580A      4.736571  
     581A      4.750467   582A      4.767698   583A      4.778636  
     584A      4.800960   585A      4.812022   586A      4.824171  
     587A      4.844274   588A      4.847872   589A      4.869029  
     590A      4.885849   591A      4.905841   592A      4.921974  
     593A      4.939654   594A      4.952509   595A      4.956305  
     596A      4.976292   597A      4.982208   598A      4.991631  
     599A      5.003155   600A      5.014647   601A      5.035811  
     602A      5.047201   603A      5.050219   604A      5.069607  
     605A      5.082103   606A      5.088068   607A      5.119547  
     608A      5.128660   609A      5.139445   610A      5.158366  
     611A      5.167051   612A      5.174305   613A      5.188084  
     614A      5.211153   615A      5.228000   616A      5.236137  
     617A      5.272017   618A      5.290659   619A      5.298179  
     620A      5.316468   621A      5.330363   622A      5.345071  
     623A      5.363090   624A      5.381840   625A      5.391554  
     626A      5.406919   627A      5.428250   628A      5.445223  
     629A      5.465035   630A      5.499728   631A      5.512878  
     632A      5.544389   633A      5.567364   634A      5.587754  
     635A      5.602196   636A      5.617009   637A      5.673839  
     638A      5.688968   639A      5.696151   640A      5.709239  
     641A      5.728794   642A      5.751761   643A      5.792848  
     644A      5.801161   645A      5.848422   646A      5.896146  
     647A      5.950910   648A      5.998885   649A      6.054339  
     650A      6.064487   651A      6.075129   652A      6.109757  
     653A      6.132693   654A      6.150185   655A      6.175432  
     656A      6.195772   657A      6.208922   658A      6.254802  
     659A      6.260437   660A      6.300516   661A      6.357663  
     662A      6.364309   663A      6.421788   664A      6.442788  
     665A      6.490203   666A      6.652989   667A      6.678250  
     668A      6.693045   669A      6.713762   670A      6.776143  
     671A      6.787720   672A      6.804820   673A      6.840472  
     674A      6.855236   675A      6.864122   676A      6.945968  
     677A      6.993567   678A      7.023034   679A      7.082143  
     680A      7.095406   681A      7.118102   682A      7.157116  
     683A      7.191992   684A      7.223431   685A      7.299457  
     686A      7.382301   687A      7.425225   688A      7.455661  
     689A      7.561180   690A      7.578025   691A      7.631702  
     692A      7.655619   693A      7.710728   694A      7.772419  
     695A      7.807098   696A      7.812191   697A      7.905470  
     698A      7.929749   699A      7.984185   700A      8.018168  
     701A      8.436103   702A      8.589640   703A     15.543371  
     704A     15.796735   705A     16.251945   706A     16.481914  
     707A     17.582075   708A     18.172436   709A     18.762700  
     710A     19.172070   711A     19.699905   712A     20.186934  
     713A     21.136490  

    Final Occupation by Irrep:
              A 
    DOCC [    40 ]

  @DF-RHF Final Energy:  -512.54489376681772

   => Energetics <=

    Nuclear Repulsion Energy =            592.5297262839127370
    One-Electron Energy =               -1873.9922440372092751
    Two-Electron Energy =                 768.9176239864789295
    Total Energy =                       -512.5448937668177223

Computation Completed

*** tstop() called on c404-133.stampede2.tacc.utexas.edu at Sat Feb 27 15:36:57 2021
Module time:
	user time   =     805.37 seconds =      13.42 minutes
	system time =      54.50 seconds =       0.91 minutes
	total time  =         43 seconds =       0.72 minutes
Total time:
	user time   =     805.37 seconds =      13.42 minutes
	system time =      54.50 seconds =       0.91 minutes
	total time  =         43 seconds =       0.72 minutes
   => Loading Basis Set <=

    Name: (AUG-CC-PVTZ AUX)
    Role: RIFIT
    Keyword: DF_BASIS_MP2
    atoms 1-2   entry O          line   264 file /home1/07844/xy3866/miniconda3/envs/p4env/share/psi4/basis/aug-cc-pvtz-ri.gbs 
    atoms 3     entry N          line   206 file /home1/07844/xy3866/miniconda3/envs/p4env/share/psi4/basis/aug-cc-pvtz-ri.gbs 
    atoms 4-11  entry C          line   148 file /home1/07844/xy3866/miniconda3/envs/p4env/share/psi4/basis/aug-cc-pvtz-ri.gbs 
    atoms 12-20 entry H          line    30 file /home1/07844/xy3866/miniconda3/envs/p4env/share/psi4/basis/aug-cc-pvtz-ri.gbs 


*** tstart() called on c404-133.stampede2.tacc.utexas.edu
*** at Sat Feb 27 15:36:58 2021


  //>>>>>>>>>>>>>>>>>>>>>>>>>>>>>>>>>>>//
  //               DFMP2               //
  //<<<<<<<<<<<<<<<<<<<<<<<<<<<<<<<<<<<//

	 --------------------------------------------------------
	                          DF-MP2                         
	      2nd-Order Density-Fitted Moller-Plesset Theory     
	              RMP2 Wavefunction,  32 Threads             
	                                                         
	        Rob Parrish, Justin Turney, Andy Simmonett,      
	           Ed Hohenstein, and C. David Sherrill          
	 --------------------------------------------------------

   => Auxiliary Basis Set <=

  Basis Set: (AUG-CC-PVTZ AUX)
    Blend: AUG-CC-PVTZ-RI
    Number of shells: 434
    Number of basis functions: 1580
    Number of Cartesian functions: 1991
    Spherical Harmonics?: true
    Max angular momentum: 4

	 --------------------------------------------------------
	                 NBF =   713, NAUX =  1580
	 --------------------------------------------------------
	   CLASS    FOCC     OCC    AOCC    AVIR     VIR    FVIR
	   PAIRS       0      40      40     673     673       0
	 --------------------------------------------------------

  DFHelper Memory: AOs need 5.760 GiB; user supplied 22.352 GiB. Using in-core AOs.


         ------------------------------------------------------------
                                     CPHF                           
                                  Rob Parrish                       
         ------------------------------------------------------------

  ==> Geometry <==

    Molecular point group: c1
    Full point group: C1

    Geometry (in Angstrom), charge = 0, multiplicity = 1:

       Center              X                  Y                   Z               Mass       
    ------------   -----------------  -----------------  -----------------  -----------------
         O            0.406632154206     1.742913913775     0.169190283381    15.994914619570
         O           -2.158321845794     0.919651913775    -0.973914716619    15.994914619570
         N           -2.692160145794    -0.424958986225     0.785853083381    14.003074004430
         C           -0.414774845794    -0.448333086225    -0.033152716619    12.000000000000
         C            0.696290154206     0.413122913775     0.052539283381    12.000000000000
         C           -0.214437845794    -1.829065086225    -0.099882716619    12.000000000000
         C            1.988994154206    -0.121949086225     0.058458283381    12.000000000000
         C            1.075830154206    -2.364752086225    -0.101355716619    12.000000000000
         C            2.169796154206    -1.506429086225    -0.025636716619    12.000000000000
         C           -1.804346845794     0.111652913775    -0.120155716619    12.000000000000
         C            1.508262154206     2.646491913775     0.186886283381    12.000000000000
         H           -1.081908845794    -2.480817086225    -0.176645716619     1.007825032230
         H            2.859025154206     0.521871913775     0.128719283381     1.007825032230
         H            1.222319154206    -3.439396086225    -0.168152716619     1.007825032230
         H            3.180488154206    -1.907999086225    -0.026523716619     1.007825032230
         H            2.108563154206     2.557086913775    -0.724591716619     1.007825032230
         H            2.144602154206     2.485813913775     1.064321283381     1.007825032230
         H            1.062112154206     3.638941913775     0.235457283381     1.007825032230
         H           -2.302840845794    -0.824849086225     1.651764283381     1.007825032230
         H           -3.586936845794    -0.000610086225     0.848223283381     1.007825032230

  Nuclear repulsion =  592.529726283912623
  Reference energy  = -512.544893766817722

  ==> Basis Set <==

  Basis Set: AUG-CC-PVTZ
    Blend: AUG-CC-PVTZ
    Number of shells: 235
    Number of basis functions: 713
    Number of Cartesian functions: 830
    Spherical Harmonics?: true
    Max angular momentum: 3

  ==> CGRSolver (by Rob Parrish) <==

   Number of roots    =         1
   Preconditioning    =    JACOBI
   Convergence cutoff =     1E-06
   Maximum iterations =       100

  ==> CPHFRHamiltonian (by Rob Parrish) <== 

  ==> MemDFJK: Density-Fitted J/K Matrices <==

    J tasked:                   Yes
    K tasked:                   Yes
    wK tasked:                   No
    OpenMP threads:              32
    Memory [MiB]:             22888
    Algorithm:                 Core
    Schwarz Cutoff:           1E-12
    Mask sparsity (%):       6.4902
    Fitting Condition:        1E-10

   => Auxiliary Basis Set <=

  Basis Set: (AUG-CC-PVTZ AUX)
    Blend: AUG-CC-PVTZ-JKFIT
    Number of shells: 456
    Number of basis functions: 1558
    Number of Cartesian functions: 1936
    Spherical Harmonics?: true
    Max angular momentum: 4

  ==> CPHF Iterations <==

  => Iterations <=

             Iter  Converged  Remaining    Residual
  CGR           1          0          1   1.156E-01
  CGR           2          0          1   3.699E-02
  CGR           3          0          1   1.834E-02
  CGR           4          0          1   8.468E-03
  CGR           5          0          1   4.182E-03
  CGR           6          0          1   1.685E-03
  CGR           7          0          1   4.852E-04
  CGR           8          0          1   1.692E-04
  CGR           9          0          1   5.526E-05
  CGR          10          0          1   2.181E-05
  CGR          11          0          1   9.786E-06
  CGR          12          0          1   3.765E-06
  CGR          13          0          1   1.594E-06
  CGR          14          1          0   5.828E-07

    CGRSolver converged.

	-----------------------------------------------------------
	 ==================> DF-MP2 Energies <==================== 
	-----------------------------------------------------------
	 Reference Energy          =    -512.5448937668177223 [Eh]
	 Singles Energy            =      -0.0000000000000000 [Eh]
	 Same-Spin Energy          =      -0.5356009953143654 [Eh]
	 Opposite-Spin Energy      =      -1.6451428098133145 [Eh]
	 Correlation Energy        =      -2.1807438051276797 [Eh]
	 Total Energy              =    -514.7256375719454127 [Eh]
	-----------------------------------------------------------
	 ================> DF-SCS-MP2 Energies <================== 
	-----------------------------------------------------------
	 SCS Same-Spin Scale       =       0.3333333333333333 [-]
	 SCS Opposite-Spin Scale   =       1.2000000000000000 [-]
	 SCS Same-Spin Energy      =      -0.1785336651047885 [Eh]
	 SCS Opposite-Spin Energy  =      -1.9741713717759772 [Eh]
	 SCS Correlation Energy    =      -2.1527050368807656 [Eh]
	 SCS Total Energy          =    -514.6975988036984972 [Eh]
	-----------------------------------------------------------



Properties will be evaluated at   0.000000,  -0.000000,   0.000000 [a0]

Properties computed using the MP2 density matrix

  Nuclear Dipole Moment: [e a0]
     X:     5.2543      Y:     0.5297      Z:     2.6493

  Electronic Dipole Moment: [e a0]
     X:    -4.4520      Y:    -0.8974      Z:    -1.5072

  Dipole Moment: [e a0]
     X:     0.8023      Y:    -0.3677      Z:     1.1421     Total:     1.4434

  Dipole Moment: [D]
     X:     2.0394      Y:    -0.9346      Z:     2.9028     Total:     3.6686


*** tstop() called on c404-133.stampede2.tacc.utexas.edu at Sat Feb 27 15:41:21 2021
Module time:
	user time   =    2399.98 seconds =      40.00 minutes
	system time =      75.18 seconds =       1.25 minutes
	total time  =        263 seconds =       4.38 minutes
Total time:
	user time   =    3206.36 seconds =      53.44 minutes
	system time =     129.70 seconds =       2.16 minutes
	total time  =        307 seconds =       5.12 minutes

    Psi4 stopped on: Saturday, 27 February 2021 03:41PM
    Psi4 wall time for execution: 0:05:08.02

*** Psi4 exiting successfully. Buy a developer a beer!
