
    -----------------------------------------------------------------------
          Psi4: An Open-Source Ab Initio Electronic Structure Package
                               Psi4 1.4a3.dev225 

                         Git: Rev {master} 7105e37 


    D. G. A. Smith, L. A. Burns, A. C. Simmonett, R. M. Parrish,
    M. C. Schieber, R. Galvelis, P. Kraus, H. Kruse, R. Di Remigio,
    A. Alenaizan, A. M. James, S. Lehtola, J. P. Misiewicz, M. Scheurer,
    R. A. Shaw, J. B. Schriber, Y. Xie, Z. L. Glick, D. A. Sirianni,
    J. S. O'Brien, J. M. Waldrop, A. Kumar, E. G. Hohenstein,
    B. P. Pritchard, B. R. Brooks, H. F. Schaefer III, A. Yu. Sokolov,
    K. Patkowski, A. E. DePrince III, U. Bozkaya, R. A. King,
    F. A. Evangelista, J. M. Turney, T. D. Crawford, C. D. Sherrill,
    J. Chem. Phys. 152(18) 184108 (2020). https://doi.org/10.1063/5.0006002

                            Additional Code Authors
    E. T. Seidl, C. L. Janssen, E. F. Valeev, M. L. Leininger,
    J. F. Gonthier, R. M. Richard, H. R. McAlexander, M. Saitow, X. Wang,
    P. Verma, and M. H. Lechner

             Previous Authors, Complete List of Code Contributors,
                       and Citations for Specific Modules
    https://github.com/psi4/psi4/blob/master/codemeta.json
    https://github.com/psi4/psi4/graphs/contributors
    http://psicode.org/psi4manual/master/introduction.html#citing-psifour

    -----------------------------------------------------------------------


    Psi4 started on: Thursday, 01 April 2021 07:15PM

    Process ID: 251362
    Host:       c473-041.stampede2.tacc.utexas.edu
    PSIDATADIR: /home1/07844/xy3866/miniconda3/envs/p4env/share/psi4
    Memory:     500.0 MiB
    Threads:    8
    
  ==> Input File <==

--------------------------------------------------------------------------
#psi4
#
memory 32 gb

molecule  {
0 1
  O        0.3703410     1.7406370     0.1509160
  O       -2.1946130     0.9173750    -0.9921890
  N       -2.7109060    -0.4412560     0.7761490
  C       -0.4510660    -0.4506100    -0.0514270
  C        0.6599990     0.4108460     0.0342650
  C       -0.2507290    -1.8313420    -0.1181570
  C        1.9527030    -0.1242260     0.0401840
  C        1.0395390    -2.3670290    -0.1196300
  C        2.1335050    -1.5087060    -0.0439110
  C       -1.8406380     0.1093760    -0.1384300
  C        1.4719710     2.6442150     0.1686120
  H       -1.1182000    -2.4830940    -0.1949200
  H        2.8227340     0.5195950     0.1104450
  H        1.1860280    -3.4416730    -0.1864270
  H        3.1441970    -1.9102760    -0.0447980
  H        2.0722720     2.5548100    -0.7428660
  H        2.1083110     2.4835370     1.0460470
  H        1.0176288     3.6548884     0.2180749
  H       -2.3391320    -0.8271260     1.6334900
  H       -3.6232280    -0.0028870     0.8299490
units angstrom
no_reorient  #important for SAPT in psi4, default
symmetry c1  #important for SAPT in psi4, default
}

set PROPERTIES_ORIGIN ["COM"]
properties('MP2/aug-cc-pvtz', properties = ['dipole'])
--------------------------------------------------------------------------

  Memory set to  29.802 GiB by Python driver.
    SCF Algorithm Type (re)set to DF.

*** tstart() called on c473-041.stampede2.tacc.utexas.edu
*** at Thu Apr  1 19:16:00 2021

   => Loading Basis Set <=

    Name: AUG-CC-PVTZ
    Role: ORBITAL
    Keyword: BASIS
    atoms 1-2   entry O          line   331 file /home1/07844/xy3866/miniconda3/envs/p4env/share/psi4/basis/aug-cc-pvtz.gbs 
    atoms 3     entry N          line   285 file /home1/07844/xy3866/miniconda3/envs/p4env/share/psi4/basis/aug-cc-pvtz.gbs 
    atoms 4-11  entry C          line   239 file /home1/07844/xy3866/miniconda3/envs/p4env/share/psi4/basis/aug-cc-pvtz.gbs 
    atoms 12-20 entry H          line    40 file /home1/07844/xy3866/miniconda3/envs/p4env/share/psi4/basis/aug-cc-pvtz.gbs 


         ---------------------------------------------------------
                                   SCF
               by Justin Turney, Rob Parrish, Andy Simmonett
                          and Daniel G. A. Smith
                              RHF Reference
                        8 Threads,  30517 MiB Core
         ---------------------------------------------------------

  ==> Geometry <==

    Molecular point group: c1
    Full point group: C1

    Geometry (in Angstrom), charge = 0, multiplicity = 1:

       Center              X                  Y                   Z               Mass       
    ------------   -----------------  -----------------  -----------------  -----------------
         O            0.405060417157     1.744091952819     0.168389903665    15.994914619570
         O           -2.159893582843     0.920829952819    -0.974715096335    15.994914619570
         N           -2.676186582843    -0.437801047181     0.793622903665    14.003074004430
         C           -0.416346582843    -0.447155047181    -0.033953096335    12.000000000000
         C            0.694718417157     0.414300952819     0.051738903665    12.000000000000
         C           -0.216009582843    -1.827887047181    -0.100683096335    12.000000000000
         C            1.987422417157    -0.120771047181     0.057657903665    12.000000000000
         C            1.074258417157    -2.363574047181    -0.102156096335    12.000000000000
         C            2.168224417157    -1.505251047181    -0.026437096335    12.000000000000
         C           -1.805918582843     0.112830952819    -0.120956096335    12.000000000000
         C            1.506690417157     2.647669952819     0.186085903665    12.000000000000
         H           -1.083480582843    -2.479639047181    -0.177446096335     1.007825032230
         H            2.857453417157     0.523049952819     0.127918903665     1.007825032230
         H            1.220747417157    -3.438218047181    -0.168953096335     1.007825032230
         H            3.178916417157    -1.906821047181    -0.027324096335     1.007825032230
         H            2.106991417157     2.558264952819    -0.725392096335     1.007825032230
         H            2.143030417157     2.486991952819     1.063520903665     1.007825032230
         H            1.052348217157     3.658343352819     0.235548803665     1.007825032230
         H           -2.304412582843    -0.823671047181     1.650963903665     1.007825032230
         H           -3.588508582843     0.000567952819     0.847422903665     1.007825032230

  Running in c1 symmetry.

  Rotational constants: A =      0.04600  B =      0.03733  C =      0.02227 [cm^-1]
  Rotational constants: A =   1378.90327  B =   1119.10684  C =    667.67921 [MHz]
  Nuclear repulsion =  592.565823261525225

  Charge       = 0
  Multiplicity = 1
  Electrons    = 80
  Nalpha       = 40
  Nbeta        = 40

  ==> Algorithm <==

  SCF Algorithm Type is DF.
  DIIS enabled.
  MOM disabled.
  Fractional occupation disabled.
  Guess Type is SAD.
  Energy threshold   = 1.00e-10
  Density threshold  = 1.00e-10
  Integral threshold = 1.00e-12

  ==> Primary Basis <==

  Basis Set: AUG-CC-PVTZ
    Blend: AUG-CC-PVTZ
    Number of shells: 235
    Number of basis functions: 713
    Number of Cartesian functions: 830
    Spherical Harmonics?: true
    Max angular momentum: 3

   => Loading Basis Set <=

    Name: (AUG-CC-PVTZ AUX)
    Role: JKFIT
    Keyword: DF_BASIS_SCF
    atoms 1-2   entry O          line   286 file /home1/07844/xy3866/miniconda3/envs/p4env/share/psi4/basis/aug-cc-pvtz-jkfit.gbs 
    atoms 3     entry N          line   224 file /home1/07844/xy3866/miniconda3/envs/p4env/share/psi4/basis/aug-cc-pvtz-jkfit.gbs 
    atoms 4-11  entry C          line   162 file /home1/07844/xy3866/miniconda3/envs/p4env/share/psi4/basis/aug-cc-pvtz-jkfit.gbs 
    atoms 12-20 entry H          line    70 file /home1/07844/xy3866/miniconda3/envs/p4env/share/psi4/basis/aug-cc-pvtz-jkfit.gbs 

  ==> Integral Setup <==

  DFHelper Memory: AOs need 5.408 GiB; user supplied 22.352 GiB. Using in-core AOs.

  ==> MemDFJK: Density-Fitted J/K Matrices <==

    J tasked:                   Yes
    K tasked:                   Yes
    wK tasked:                   No
    OpenMP threads:               8
    Memory [MiB]:             22888
    Algorithm:                 Core
    Schwarz Cutoff:           1E-12
    Mask sparsity (%):      10.9078
    Fitting Condition:        1E-10

   => Auxiliary Basis Set <=

  Basis Set: (AUG-CC-PVTZ AUX)
    Blend: AUG-CC-PVTZ-JKFIT
    Number of shells: 456
    Number of basis functions: 1558
    Number of Cartesian functions: 1936
    Spherical Harmonics?: true
    Max angular momentum: 4

  Minimum eigenvalue in the overlap matrix is 5.5528714447E-07.
  Reciprocal condition number of the overlap matrix is 2.9284065200E-08.
    Using symmetric orthogonalization.

  ==> Pre-Iterations <==

  SCF Guess: Superposition of Atomic Densities via on-the-fly atomic UHF (no occupation information).

   -------------------------
    Irrep   Nso     Nmo    
   -------------------------
     A        713     713 
   -------------------------
    Total     713     713
   -------------------------

  ==> Iterations <==

                           Total Energy        Delta E     RMS |[F,P]|

   @DF-RHF iter SAD:  -511.60431814381013   -5.11604e+02   0.00000e+00 
   @DF-RHF iter   1:  -512.23226109956340   -6.27943e-01   1.07579e-03 DIIS
   @DF-RHF iter   2:  -512.47632773722125   -2.44067e-01   5.78804e-04 DIIS
   @DF-RHF iter   3:  -512.53937767483887   -6.30499e-02   1.29260e-04 DIIS
   @DF-RHF iter   4:  -512.54385013589740   -4.47246e-03   5.78517e-05 DIIS
   @DF-RHF iter   5:  -512.54475213227613   -9.01996e-04   1.01295e-05 DIIS
   @DF-RHF iter   6:  -512.54481621034120   -6.40781e-05   4.65937e-06 DIIS
   @DF-RHF iter   7:  -512.54483000493610   -1.37946e-05   2.03020e-06 DIIS
   @DF-RHF iter   8:  -512.54483292200689   -2.91707e-06   7.82029e-07 DIIS
   @DF-RHF iter   9:  -512.54483335379769   -4.31791e-07   3.00851e-07 DIIS
   @DF-RHF iter  10:  -512.54483342029755   -6.64999e-08   1.07394e-07 DIIS
   @DF-RHF iter  11:  -512.54483342993058   -9.63303e-09   3.53551e-08 DIIS
   @DF-RHF iter  12:  -512.54483343116760   -1.23703e-09   1.97920e-08 DIIS
   @DF-RHF iter  13:  -512.54483343146069   -2.93085e-10   8.07991e-09 DIIS
   @DF-RHF iter  14:  -512.54483343153902   -7.83302e-11   3.67522e-09 DIIS
   @DF-RHF iter  15:  -512.54483343155903   -2.00089e-11   1.61310e-09 DIIS
   @DF-RHF iter  16:  -512.54483343156130   -2.27374e-12   5.61475e-10 DIIS
   @DF-RHF iter  17:  -512.54483343156289   -1.59162e-12   2.19082e-10 DIIS
   @DF-RHF iter  18:  -512.54483343156198    9.09495e-13   6.86228e-11 DIIS
  Energy and wave function converged.


  ==> Post-Iterations <==

    Orbital Energies [Eh]
    ---------------------

    Doubly Occupied:                                                      

       1A    -20.590558     2A    -20.517441     3A    -15.582843  
       4A    -11.355096     5A    -11.317547     6A    -11.289999  
       7A    -11.255427     8A    -11.254188     9A    -11.248374  
      10A    -11.242828    11A    -11.238495    12A     -1.414034  
      13A     -1.369708    14A     -1.207914    15A     -1.157948  
      16A     -1.042811    17A     -1.024503    18A     -0.948025  
      19A     -0.877261    20A     -0.824024    21A     -0.789336  
      22A     -0.735571    23A     -0.709042    24A     -0.681545  
      25A     -0.665619    26A     -0.657293    27A     -0.639083  
      28A     -0.623318    29A     -0.596148    30A     -0.581088  
      31A     -0.558344    32A     -0.542932    33A     -0.530145  
      34A     -0.518367    35A     -0.499987    36A     -0.475902  
      37A     -0.424147    38A     -0.411655    39A     -0.352400  
      40A     -0.322888  

    Virtual:                                                              

      41A      0.024414    42A      0.029216    43A      0.031558  
      44A      0.041697    45A      0.045229    46A      0.049182  
      47A      0.053862    48A      0.061324    49A      0.074390  
      50A      0.078051    51A      0.089820    52A      0.098133  
      53A      0.099531    54A      0.101739    55A      0.108208  
      56A      0.112165    57A      0.116185    58A      0.118658  
      59A      0.122218    60A      0.126055    61A      0.126592  
      62A      0.132840    63A      0.135502    64A      0.138394  
      65A      0.144470    66A      0.144819    67A      0.152643  
      68A      0.154130    69A      0.158303    70A      0.158596  
      71A      0.170494    72A      0.171854    73A      0.175870  
      74A      0.179884    75A      0.184473    76A      0.188691  
      77A      0.196573    78A      0.198598    79A      0.205168  
      80A      0.211818    81A      0.220312    82A      0.233718  
      83A      0.241373    84A      0.245168    85A      0.246458  
      86A      0.252909    87A      0.258712    88A      0.264881  
      89A      0.267584    90A      0.274412    91A      0.283475  
      92A      0.285312    93A      0.291436    94A      0.300014  
      95A      0.301801    96A      0.303040    97A      0.305878  
      98A      0.315115    99A      0.318799   100A      0.320207  
     101A      0.326361   102A      0.330016   103A      0.333493  
     104A      0.336720   105A      0.337834   106A      0.345774  
     107A      0.351486   108A      0.354681   109A      0.360035  
     110A      0.365908   111A      0.369116   112A      0.372717  
     113A      0.376227   114A      0.382041   115A      0.392442  
     116A      0.395239   117A      0.401056   118A      0.405722  
     119A      0.409261   120A      0.415474   121A      0.423104  
     122A      0.427500   123A      0.430361   124A      0.434437  
     125A      0.439564   126A      0.441271   127A      0.442729  
     128A      0.445464   129A      0.447237   130A      0.457224  
     131A      0.461486   132A      0.469607   133A      0.477570  
     134A      0.480740   135A      0.484182   136A      0.487315  
     137A      0.489006   138A      0.494578   139A      0.500309  
     140A      0.501455   141A      0.508443   142A      0.508462  
     143A      0.514848   144A      0.521882   145A      0.524275  
     146A      0.533278   147A      0.536345   148A      0.540557  
     149A      0.543132   150A      0.548159   151A      0.554817  
     152A      0.558963   153A      0.559828   154A      0.570503  
     155A      0.572854   156A      0.581783   157A      0.585248  
     158A      0.589801   159A      0.598545   160A      0.603993  
     161A      0.610973   162A      0.617395   163A      0.617932  
     164A      0.625280   165A      0.638178   166A      0.641475  
     167A      0.648187   168A      0.665281   169A      0.666536  
     170A      0.675127   171A      0.681105   172A      0.690363  
     173A      0.692719   174A      0.696345   175A      0.703354  
     176A      0.711069   177A      0.719303   178A      0.727210  
     179A      0.731074   180A      0.740634   181A      0.756304  
     182A      0.760304   183A      0.769447   184A      0.771073  
     185A      0.775035   186A      0.781741   187A      0.786618  
     188A      0.790115   189A      0.799526   190A      0.819889  
     191A      0.825250   192A      0.827921   193A      0.834424  
     194A      0.837792   195A      0.840818   196A      0.858814  
     197A      0.859755   198A      0.867563   199A      0.870336  
     200A      0.879645   201A      0.880524   202A      0.883024  
     203A      0.892242   204A      0.893813   205A      0.897776  
     206A      0.902800   207A      0.907004   208A      0.911775  
     209A      0.912871   210A      0.923885   211A      0.927388  
     212A      0.932922   213A      0.938792   214A      0.941086  
     215A      0.949935   216A      0.953469   217A      0.962179  
     218A      0.967312   219A      0.973266   220A      0.982923  
     221A      0.989409   222A      0.999551   223A      1.003466  
     224A      1.005102   225A      1.008476   226A      1.014443  
     227A      1.017948   228A      1.020605   229A      1.030067  
     230A      1.034093   231A      1.039040   232A      1.048558  
     233A      1.052578   234A      1.060928   235A      1.065382  
     236A      1.067481   237A      1.073824   238A      1.078364  
     239A      1.081994   240A      1.092078   241A      1.097428  
     242A      1.098986   243A      1.104820   244A      1.110335  
     245A      1.112724   246A      1.122107   247A      1.123212  
     248A      1.130777   249A      1.137183   250A      1.145688  
     251A      1.147209   252A      1.153289   253A      1.162018  
     254A      1.165084   255A      1.168027   256A      1.176797  
     257A      1.181547   258A      1.187558   259A      1.195824  
     260A      1.202434   261A      1.207683   262A      1.213907  
     263A      1.218815   264A      1.221801   265A      1.234134  
     266A      1.238028   267A      1.243403   268A      1.245893  
     269A      1.255620   270A      1.261270   271A      1.269801  
     272A      1.277059   273A      1.283353   274A      1.284987  
     275A      1.292664   276A      1.301990   277A      1.307005  
     278A      1.308864   279A      1.316204   280A      1.320309  
     281A      1.332996   282A      1.340977   283A      1.344442  
     284A      1.353463   285A      1.366530   286A      1.377428  
     287A      1.380060   288A      1.392806   289A      1.400169  
     290A      1.412537   291A      1.427659   292A      1.437488  
     293A      1.443707   294A      1.456772   295A      1.460325  
     296A      1.466281   297A      1.471096   298A      1.491501  
     299A      1.495706   300A      1.504007   301A      1.510576  
     302A      1.514279   303A      1.523657   304A      1.525994  
     305A      1.530273   306A      1.542525   307A      1.550154  
     308A      1.559863   309A      1.568610   310A      1.575440  
     311A      1.580923   312A      1.592230   313A      1.599555  
     314A      1.608505   315A      1.618405   316A      1.632666  
     317A      1.645052   318A      1.648270   319A      1.663421  
     320A      1.669226   321A      1.673252   322A      1.684106  
     323A      1.687291   324A      1.689439   325A      1.696311  
     326A      1.698957   327A      1.714834   328A      1.730573  
     329A      1.734238   330A      1.750942   331A      1.758623  
     332A      1.766997   333A      1.777557   334A      1.780528  
     335A      1.785872   336A      1.797562   337A      1.806191  
     338A      1.814048   339A      1.824995   340A      1.839833  
     341A      1.842905   342A      1.846267   343A      1.855030  
     344A      1.855827   345A      1.875037   346A      1.878934  
     347A      1.888857   348A      1.891755   349A      1.897753  
     350A      1.906529   351A      1.910118   352A      1.928907  
     353A      1.935473   354A      1.948898   355A      1.966392  
     356A      1.980705   357A      1.990535   358A      2.000692  
     359A      2.009682   360A      2.017723   361A      2.023848  
     362A      2.027520   363A      2.040252   364A      2.046194  
     365A      2.055954   366A      2.065597   367A      2.070315  
     368A      2.078738   369A      2.088011   370A      2.103184  
     371A      2.106055   372A      2.120241   373A      2.122454  
     374A      2.124234   375A      2.137631   376A      2.147847  
     377A      2.153257   378A      2.164388   379A      2.181531  
     380A      2.192558   381A      2.197093   382A      2.201209  
     383A      2.217673   384A      2.229525   385A      2.237794  
     386A      2.245619   387A      2.260109   388A      2.263297  
     389A      2.287542   390A      2.292880   391A      2.301039  
     392A      2.322262   393A      2.327629   394A      2.343339  
     395A      2.357188   396A      2.378109   397A      2.393110  
     398A      2.394867   399A      2.418272   400A      2.427482  
     401A      2.435067   402A      2.446889   403A      2.454053  
     404A      2.468548   405A      2.473226   406A      2.484215  
     407A      2.503376   408A      2.517443   409A      2.527030  
     410A      2.531271   411A      2.559257   412A      2.571952  
     413A      2.592513   414A      2.595445   415A      2.613033  
     416A      2.614514   417A      2.631714   418A      2.652825  
     419A      2.667687   420A      2.687330   421A      2.693309  
     422A      2.707781   423A      2.724627   424A      2.729663  
     425A      2.740776   426A      2.757251   427A      2.770775  
     428A      2.785462   429A      2.804644   430A      2.812576  
     431A      2.822738   432A      2.837031   433A      2.848193  
     434A      2.876348   435A      2.885760   436A      2.920716  
     437A      2.950980   438A      2.972054   439A      2.984624  
     440A      3.007539   441A      3.034167   442A      3.063518  
     443A      3.072361   444A      3.080556   445A      3.096889  
     446A      3.109862   447A      3.117158   448A      3.124163  
     449A      3.154486   450A      3.179419   451A      3.207851  
     452A      3.240783   453A      3.253876   454A      3.267806  
     455A      3.287833   456A      3.314709   457A      3.328547  
     458A      3.348966   459A      3.372512   460A      3.383469  
     461A      3.405331   462A      3.408143   463A      3.414838  
     464A      3.421286   465A      3.436458   466A      3.446140  
     467A      3.462603   468A      3.469209   469A      3.477170  
     470A      3.486023   471A      3.506693   472A      3.513482  
     473A      3.524175   474A      3.532672   475A      3.536405  
     476A      3.555066   477A      3.562949   478A      3.576200  
     479A      3.580518   480A      3.597082   481A      3.606663  
     482A      3.621852   483A      3.644016   484A      3.656793  
     485A      3.667527   486A      3.671473   487A      3.698543  
     488A      3.700104   489A      3.707495   490A      3.714935  
     491A      3.735010   492A      3.743008   493A      3.762810  
     494A      3.764971   495A      3.782967   496A      3.786627  
     497A      3.802182   498A      3.813025   499A      3.823341  
     500A      3.831282   501A      3.837632   502A      3.844413  
     503A      3.854717   504A      3.866459   505A      3.882208  
     506A      3.889420   507A      3.900320   508A      3.908220  
     509A      3.913217   510A      3.925233   511A      3.929772  
     512A      3.943263   513A      3.954252   514A      3.968539  
     515A      3.979965   516A      3.987261   517A      4.004872  
     518A      4.021541   519A      4.029920   520A      4.036895  
     521A      4.039206   522A      4.049768   523A      4.055748  
     524A      4.075212   525A      4.079490   526A      4.087902  
     527A      4.100005   528A      4.116211   529A      4.140458  
     530A      4.145047   531A      4.150734   532A      4.170299  
     533A      4.185285   534A      4.214439   535A      4.218800  
     536A      4.235003   537A      4.244513   538A      4.254481  
     539A      4.265880   540A      4.286043   541A      4.287435  
     542A      4.304279   543A      4.311835   544A      4.314189  
     545A      4.334929   546A      4.339202   547A      4.352593  
     548A      4.364045   549A      4.375775   550A      4.377509  
     551A      4.385381   552A      4.399403   553A      4.401128  
     554A      4.412568   555A      4.425525   556A      4.431549  
     557A      4.442331   558A      4.454766   559A      4.463000  
     560A      4.469032   561A      4.477141   562A      4.490895  
     563A      4.508664   564A      4.520011   565A      4.535614  
     566A      4.559252   567A      4.570726   568A      4.586413  
     569A      4.595088   570A      4.607345   571A      4.631680  
     572A      4.647121   573A      4.666296   574A      4.671658  
     575A      4.688962   576A      4.701387   577A      4.718549  
     578A      4.720663   579A      4.726381   580A      4.735134  
     581A      4.748547   582A      4.763249   583A      4.776201  
     584A      4.798731   585A      4.808607   586A      4.824888  
     587A      4.836121   588A      4.848846   589A      4.862147  
     590A      4.883713   591A      4.907272   592A      4.922927  
     593A      4.939715   594A      4.950101   595A      4.956327  
     596A      4.973472   597A      4.979606   598A      4.991887  
     599A      5.005822   600A      5.013728   601A      5.033562  
     602A      5.041209   603A      5.047210   604A      5.061056  
     605A      5.074836   606A      5.089969   607A      5.113689  
     608A      5.125354   609A      5.136697   610A      5.154190  
     611A      5.166038   612A      5.171675   613A      5.187997  
     614A      5.205497   615A      5.225514   616A      5.229523  
     617A      5.271468   618A      5.286856   619A      5.294809  
     620A      5.313883   621A      5.329454   622A      5.344480  
     623A      5.359532   624A      5.377914   625A      5.389426  
     626A      5.402578   627A      5.425313   628A      5.439076  
     629A      5.455871   630A      5.494699   631A      5.511706  
     632A      5.543819   633A      5.560346   634A      5.592162  
     635A      5.594440   636A      5.612155   637A      5.658506  
     638A      5.677537   639A      5.695703   640A      5.709939  
     641A      5.727266   642A      5.749008   643A      5.791540  
     644A      5.804857   645A      5.850612   646A      5.891584  
     647A      5.949661   648A      6.000899   649A      6.027260  
     650A      6.039784   651A      6.075187   652A      6.116069  
     653A      6.129642   654A      6.145992   655A      6.169464  
     656A      6.193985   657A      6.202109   658A      6.225012  
     659A      6.267219   660A      6.304903   661A      6.358900  
     662A      6.362755   663A      6.418982   664A      6.439561  
     665A      6.489225   666A      6.653175   667A      6.682244  
     668A      6.692020   669A      6.718495   670A      6.773442  
     671A      6.780406   672A      6.795646   673A      6.822413  
     674A      6.849474   675A      6.859504   676A      6.946711  
     677A      6.992779   678A      7.021955   679A      7.082198  
     680A      7.091898   681A      7.112538   682A      7.155800  
     683A      7.191385   684A      7.222799   685A      7.300013  
     686A      7.386202   687A      7.423126   688A      7.452687  
     689A      7.561696   690A      7.579565   691A      7.631226  
     692A      7.664757   693A      7.718468   694A      7.770423  
     695A      7.798536   696A      7.806968   697A      7.903757  
     698A      7.927607   699A      7.982871   700A      8.016784  
     701A      8.432790   702A      8.587752   703A     15.534467  
     704A     15.787437   705A     16.249685   706A     16.473373  
     707A     17.563563   708A     18.129721   709A     18.741306  
     710A     19.167279   711A     19.695959   712A     20.184989  
     713A     21.135073  

    Final Occupation by Irrep:
              A 
    DOCC [    40 ]

  @DF-RHF Final Energy:  -512.54483343156198

   => Energetics <=

    Nuclear Repulsion Energy =            592.5658232615252246
    One-Electron Energy =               -1874.0736450334984511
    Two-Electron Energy =                 768.9629883404113571
    Total Energy =                       -512.5448334315619832

Computation Completed

*** tstop() called on c473-041.stampede2.tacc.utexas.edu at Thu Apr  1 19:17:18 2021
Module time:
	user time   =     487.35 seconds =       8.12 minutes
	system time =      11.99 seconds =       0.20 minutes
	total time  =         78 seconds =       1.30 minutes
Total time:
	user time   =     487.35 seconds =       8.12 minutes
	system time =      11.99 seconds =       0.20 minutes
	total time  =         78 seconds =       1.30 minutes
   => Loading Basis Set <=

    Name: (AUG-CC-PVTZ AUX)
    Role: RIFIT
    Keyword: DF_BASIS_MP2
    atoms 1-2   entry O          line   264 file /home1/07844/xy3866/miniconda3/envs/p4env/share/psi4/basis/aug-cc-pvtz-ri.gbs 
    atoms 3     entry N          line   206 file /home1/07844/xy3866/miniconda3/envs/p4env/share/psi4/basis/aug-cc-pvtz-ri.gbs 
    atoms 4-11  entry C          line   148 file /home1/07844/xy3866/miniconda3/envs/p4env/share/psi4/basis/aug-cc-pvtz-ri.gbs 
    atoms 12-20 entry H          line    30 file /home1/07844/xy3866/miniconda3/envs/p4env/share/psi4/basis/aug-cc-pvtz-ri.gbs 


*** tstart() called on c473-041.stampede2.tacc.utexas.edu
*** at Thu Apr  1 19:17:19 2021


  //>>>>>>>>>>>>>>>>>>>>>>>>>>>>>>>>>>>//
  //               DFMP2               //
  //<<<<<<<<<<<<<<<<<<<<<<<<<<<<<<<<<<<//

	 --------------------------------------------------------
	                          DF-MP2                         
	      2nd-Order Density-Fitted Moller-Plesset Theory     
	              RMP2 Wavefunction,   8 Threads             
	                                                         
	        Rob Parrish, Justin Turney, Andy Simmonett,      
	           Ed Hohenstein, and C. David Sherrill          
	 --------------------------------------------------------

   => Auxiliary Basis Set <=

  Basis Set: (AUG-CC-PVTZ AUX)
    Blend: AUG-CC-PVTZ-RI
    Number of shells: 434
    Number of basis functions: 1580
    Number of Cartesian functions: 1991
    Spherical Harmonics?: true
    Max angular momentum: 4

	 --------------------------------------------------------
	                 NBF =   713, NAUX =  1580
	 --------------------------------------------------------
	   CLASS    FOCC     OCC    AOCC    AVIR     VIR    FVIR
	   PAIRS       0      40      40     673     673       0
	 --------------------------------------------------------

  DFHelper Memory: AOs need 5.669 GiB; user supplied 22.352 GiB. Using in-core AOs.


         ------------------------------------------------------------
                                     CPHF                           
                                  Rob Parrish                       
         ------------------------------------------------------------

  ==> Geometry <==

    Molecular point group: c1
    Full point group: C1

    Geometry (in Angstrom), charge = 0, multiplicity = 1:

       Center              X                  Y                   Z               Mass       
    ------------   -----------------  -----------------  -----------------  -----------------
         O            0.405060417157     1.744091952819     0.168389903665    15.994914619570
         O           -2.159893582843     0.920829952819    -0.974715096335    15.994914619570
         N           -2.676186582843    -0.437801047181     0.793622903665    14.003074004430
         C           -0.416346582843    -0.447155047181    -0.033953096335    12.000000000000
         C            0.694718417157     0.414300952819     0.051738903665    12.000000000000
         C           -0.216009582843    -1.827887047181    -0.100683096335    12.000000000000
         C            1.987422417157    -0.120771047181     0.057657903665    12.000000000000
         C            1.074258417157    -2.363574047181    -0.102156096335    12.000000000000
         C            2.168224417157    -1.505251047181    -0.026437096335    12.000000000000
         C           -1.805918582843     0.112830952819    -0.120956096335    12.000000000000
         C            1.506690417157     2.647669952819     0.186085903665    12.000000000000
         H           -1.083480582843    -2.479639047181    -0.177446096335     1.007825032230
         H            2.857453417157     0.523049952819     0.127918903665     1.007825032230
         H            1.220747417157    -3.438218047181    -0.168953096335     1.007825032230
         H            3.178916417157    -1.906821047181    -0.027324096335     1.007825032230
         H            2.106991417157     2.558264952819    -0.725392096335     1.007825032230
         H            2.143030417157     2.486991952819     1.063520903665     1.007825032230
         H            1.052348217157     3.658343352819     0.235548803665     1.007825032230
         H           -2.304412582843    -0.823671047181     1.650963903665     1.007825032230
         H           -3.588508582843     0.000567952819     0.847422903665     1.007825032230

  Nuclear repulsion =  592.565823261525225
  Reference energy  = -512.544833431561983

  ==> Basis Set <==

  Basis Set: AUG-CC-PVTZ
    Blend: AUG-CC-PVTZ
    Number of shells: 235
    Number of basis functions: 713
    Number of Cartesian functions: 830
    Spherical Harmonics?: true
    Max angular momentum: 3

  ==> CGRSolver (by Rob Parrish) <==

   Number of roots    =         1
   Preconditioning    =    JACOBI
   Convergence cutoff =     1E-06
   Maximum iterations =       100

  ==> CPHFRHamiltonian (by Rob Parrish) <== 

  ==> MemDFJK: Density-Fitted J/K Matrices <==

    J tasked:                   Yes
    K tasked:                   Yes
    wK tasked:                   No
    OpenMP threads:               8
    Memory [MiB]:             22888
    Algorithm:                 Core
    Schwarz Cutoff:           1E-12
    Mask sparsity (%):       6.4886
    Fitting Condition:        1E-10

   => Auxiliary Basis Set <=

  Basis Set: (AUG-CC-PVTZ AUX)
    Blend: AUG-CC-PVTZ-JKFIT
    Number of shells: 456
    Number of basis functions: 1558
    Number of Cartesian functions: 1936
    Spherical Harmonics?: true
    Max angular momentum: 4

  ==> CPHF Iterations <==

  => Iterations <=

             Iter  Converged  Remaining    Residual
  CGR           1          0          1   1.155E-01
  CGR           2          0          1   3.695E-02
  CGR           3          0          1   1.824E-02
  CGR           4          0          1   8.437E-03
  CGR           5          0          1   4.174E-03
  CGR           6          0          1   1.683E-03
  CGR           7          0          1   4.836E-04
  CGR           8          0          1   1.685E-04
  CGR           9          0          1   5.482E-05
  CGR          10          0          1   2.160E-05
  CGR          11          0          1   9.669E-06
  CGR          12          0          1   3.712E-06
  CGR          13          0          1   1.572E-06
  CGR          14          1          0   5.793E-07

    CGRSolver converged.

	-----------------------------------------------------------
	 ==================> DF-MP2 Energies <==================== 
	-----------------------------------------------------------
	 Reference Energy          =    -512.5448334315619832 [Eh]
	 Singles Energy            =      -0.0000000000000000 [Eh]
	 Same-Spin Energy          =      -0.5357171983376743 [Eh]
	 Opposite-Spin Energy      =      -1.6454369657565673 [Eh]
	 Correlation Energy        =      -2.1811541640942416 [Eh]
	 Total Energy              =    -514.7259875956561928 [Eh]
	-----------------------------------------------------------
	 ================> DF-SCS-MP2 Energies <================== 
	-----------------------------------------------------------
	 SCS Same-Spin Scale       =       0.3333333333333333 [-]
	 SCS Opposite-Spin Scale   =       1.2000000000000000 [-]
	 SCS Same-Spin Energy      =      -0.1785723994458914 [Eh]
	 SCS Opposite-Spin Energy  =      -1.9745243589078807 [Eh]
	 SCS Correlation Energy    =      -2.1530967583537719 [Eh]
	 SCS Total Energy          =    -514.6979301899157235 [Eh]
	-----------------------------------------------------------



Properties will be evaluated at   0.000000,   0.000000,  -0.000000 [a0]

Properties computed using the MP2 density matrix

  Nuclear Dipole Moment: [e a0]
     X:     5.2333      Y:     0.5567      Z:     2.6434

  Electronic Dipole Moment: [e a0]
     X:    -4.4483      Y:    -0.9208      Z:    -1.5029

  Dipole Moment: [e a0]
     X:     0.7850      Y:    -0.3640      Z:     1.1405     Total:     1.4316

  Dipole Moment: [D]
     X:     1.9952      Y:    -0.9253      Z:     2.8987     Total:     3.6387


*** tstop() called on c473-041.stampede2.tacc.utexas.edu at Thu Apr  1 19:22:32 2021
Module time:
	user time   =    1933.67 seconds =      32.23 minutes
	system time =      29.09 seconds =       0.48 minutes
	total time  =        313 seconds =       5.22 minutes
Total time:
	user time   =    2422.01 seconds =      40.37 minutes
	system time =      41.11 seconds =       0.69 minutes
	total time  =        392 seconds =       6.53 minutes

    Psi4 stopped on: Thursday, 01 April 2021 07:22PM
    Psi4 wall time for execution: 0:06:32.47

*** Psi4 exiting successfully. Buy a developer a beer!
