
    -----------------------------------------------------------------------
          Psi4: An Open-Source Ab Initio Electronic Structure Package
                               Psi4 1.3.2 release

                         Git: Rev {HEAD} ecbda83 


    R. M. Parrish, L. A. Burns, D. G. A. Smith, A. C. Simmonett,
    A. E. DePrince III, E. G. Hohenstein, U. Bozkaya, A. Yu. Sokolov,
    R. Di Remigio, R. M. Richard, J. F. Gonthier, A. M. James,
    H. R. McAlexander, A. Kumar, M. Saitow, X. Wang, B. P. Pritchard,
    P. Verma, H. F. Schaefer III, K. Patkowski, R. A. King, E. F. Valeev,
    F. A. Evangelista, J. M. Turney, T. D. Crawford, and C. D. Sherrill,
    J. Chem. Theory Comput. 13(7) pp 3185--3197 (2017).
    (doi: 10.1021/acs.jctc.7b00174)


                         Additional Contributions by
    P. Kraus, H. Kruse, M. H. Lechner, M. C. Schieber, R. A. Shaw,
    A. Alenaizan, R. Galvelis, Z. L. Glick, S. Lehtola, and J. P. Misiewicz

    -----------------------------------------------------------------------


    Psi4 started on: Tuesday, 03 November 2020 10:01PM

    Process ID: 50256
    Host:       node97.bme.utexas.edu
    PSIDATADIR: /home/xy3866/psi4conda/share/psi4
    Memory:     500.0 MiB
    Threads:    8
    
  ==> Input File <==

--------------------------------------------------------------------------
#psi4
#
memory 32 gb

molecule  {
0 1
  O        2.8131859    -0.4296501    -0.0000619
  C        0.5303490     0.2197810    -0.0000320
  C       -0.3650130     1.2954270     0.0000030
  C        0.0536120    -1.0979650    -0.0000100
  C       -1.7392770     1.0552920     0.0000660
  C       -1.3183870    -1.3327110     0.0000480
  C       -2.2153620    -0.2579650     0.0000850
  C        1.9872980     0.4782480    -0.0000900
  H        0.0154570     2.3161290    -0.0000170
  H        0.7719840    -1.9138740    -0.0000340
  H       -2.4382530     1.8879220     0.0000950
  H       -1.6949380    -2.3526680     0.0000610
  H       -3.2864430    -0.4457910     0.0001330
  H        2.2779260     1.5498300    -0.0001490
units angstrom
no_reorient  #important for SAPT in psi4, default
symmetry c1  #important for SAPT in psi4, default
}

set PROPERTIES_ORIGIN ["COM"]
properties('MP2/aug-cc-pvtz', properties = ['dipole'])
--------------------------------------------------------------------------

  Memory set to  29.802 GiB by Python driver.
    SCF Algorithm Type (re)set to DF.

*** tstart() called on node97.bme.utexas.edu
*** at Tue Nov  3 22:01:28 2020

   => Loading Basis Set <=

    Name: AUG-CC-PVTZ
    Role: ORBITAL
    Keyword: BASIS
    atoms 1    entry O          line   327 file /home/xy3866/psi4conda/share/psi4/basis/aug-cc-pvtz.gbs 
    atoms 2-8  entry C          line   235 file /home/xy3866/psi4conda/share/psi4/basis/aug-cc-pvtz.gbs 
    atoms 9-14 entry H          line    36 file /home/xy3866/psi4conda/share/psi4/basis/aug-cc-pvtz.gbs 


         ---------------------------------------------------------
                                   SCF
               by Justin Turney, Rob Parrish, Andy Simmonett
                          and Daniel G. A. Smith
                              RHF Reference
                        8 Threads,  30517 MiB Core
         ---------------------------------------------------------

  ==> Geometry <==

    Molecular point group: c1
    Full point group: C1

    Geometry (in Angstrom), charge = 0, multiplicity = 1:

       Center              X                  Y                   Z               Mass       
    ------------   -----------------  -----------------  -----------------  -----------------
         O            2.777285277104    -0.415493101519    -0.000061330519    15.994914619570
         C            0.494448377104     0.233937998481    -0.000031430519    12.000000000000
         C           -0.400913622896     1.309583998481     0.000003569481    12.000000000000
         C            0.017711377104    -1.083808001519    -0.000009430519    12.000000000000
         C           -1.775177622896     1.069448998481     0.000066569481    12.000000000000
         C           -1.354287622896    -1.318554001519     0.000048569481    12.000000000000
         C           -2.251262622896    -0.243808001519     0.000085569481    12.000000000000
         C            1.951397377104     0.492404998481    -0.000089430519    12.000000000000
         H           -0.020443622896     2.330285998481    -0.000016430519     1.007825032230
         H            0.736083377104    -1.899717001519    -0.000033430519     1.007825032230
         H           -2.474153622896     1.902078998481     0.000095569481     1.007825032230
         H           -1.730838622896    -2.338511001519     0.000061569481     1.007825032230
         H           -3.322343622896    -0.431634001519     0.000133569481     1.007825032230
         H            2.242025377104     1.563986998481    -0.000148430519     1.007825032230

  Running in c1 symmetry.

  Rotational constants: A =      0.17351  B =      0.05259  C =      0.04036 [cm^-1]
  Rotational constants: A =   5201.83532  B =   1576.48077  C =   1209.82752 [MHz]
  Nuclear repulsion =  320.843996843792468

  Charge       = 0
  Multiplicity = 1
  Electrons    = 56
  Nalpha       = 28
  Nbeta        = 28

  ==> Algorithm <==

  SCF Algorithm Type is DF.
  DIIS enabled.
  MOM disabled.
  Fractional occupation disabled.
  Guess Type is SAD.
  Energy threshold   = 1.00e-10
  Density threshold  = 1.00e-10
  Integral threshold = 0.00e+00

  ==> Primary Basis <==

  Basis Set: AUG-CC-PVTZ
    Blend: AUG-CC-PVTZ
    Number of shells: 166
    Number of basis function: 506
    Number of Cartesian functions: 590
    Spherical Harmonics?: true
    Max angular momentum: 3

   => Loading Basis Set <=

    Name: (AUG-CC-PVTZ AUX)
    Role: JKFIT
    Keyword: DF_BASIS_SCF
    atoms 1    entry O          line   286 file /home/xy3866/psi4conda/share/psi4/basis/aug-cc-pvtz-jkfit.gbs 
    atoms 2-8  entry C          line   162 file /home/xy3866/psi4conda/share/psi4/basis/aug-cc-pvtz-jkfit.gbs 
    atoms 9-14 entry H          line    70 file /home/xy3866/psi4conda/share/psi4/basis/aug-cc-pvtz-jkfit.gbs 

  ==> Pre-Iterations <==

   -------------------------------------------------------
    Irrep   Nso     Nmo     Nalpha   Nbeta   Ndocc  Nsocc
   -------------------------------------------------------
     A        506     506       0       0       0       0
   -------------------------------------------------------
    Total     506     506      28      28      28       0
   -------------------------------------------------------

  ==> Integral Setup <==

  DFHelper Memory: AOs need 2.121 GiB; user supplied 22.352 GiB. Using in-core AOs.

  ==> MemDFJK: Density-Fitted J/K Matrices <==

    J tasked:                   Yes
    K tasked:                   Yes
    wK tasked:                   No
    OpenMP threads:               8
    Memory [MiB]:             22888
    Algorithm:                 Disk
    Schwarz Cutoff:           1E-12
    Mask sparsity (%):       3.2472
    Fitting Condition:        1E-10

   => Auxiliary Basis Set <=

  Basis Set: (AUG-CC-PVTZ AUX)
    Blend: AUG-CC-PVTZ-JKFIT
    Number of shells: 324
    Number of basis function: 1108
    Number of Cartesian functions: 1378
    Spherical Harmonics?: true
    Max angular momentum: 4

  Minimum eigenvalue in the overlap matrix is 6.5896700649E-07.
  Using Symmetric Orthogonalization.

  SCF Guess: Superposition of Atomic Densities via on-the-fly atomic UHF.

  ==> Iterations <==

                           Total Energy        Delta E     RMS |[F,P]|

   @DF-RHF iter SAD:  -342.67427263867791   -3.42674e+02   0.00000e+00 
   @DF-RHF iter   1:  -343.33735224021643   -6.63080e-01   1.22645e-03 DIIS
   @DF-RHF iter   2:  -343.49190727170520   -1.54555e-01   7.25893e-04 DIIS
   @DF-RHF iter   3:  -343.54431260823026   -5.24053e-02   1.42149e-04 DIIS
   @DF-RHF iter   4:  -343.54701039757100   -2.69779e-03   6.34255e-05 DIIS
   @DF-RHF iter   5:  -343.54752416456904   -5.13767e-04   1.04868e-05 DIIS
   @DF-RHF iter   6:  -343.54755497022597   -3.08057e-05   4.39176e-06 DIIS
   @DF-RHF iter   7:  -343.54756176903334   -6.79881e-06   2.10782e-06 DIIS
   @DF-RHF iter   8:  -343.54756323084325   -1.46181e-06   8.77730e-07 DIIS
   @DF-RHF iter   9:  -343.54756349785316   -2.67010e-07   3.28352e-07 DIIS
   @DF-RHF iter  10:  -343.54756353521361   -3.73605e-08   9.21156e-08 DIIS
   @DF-RHF iter  11:  -343.54756353964967   -4.43606e-09   3.98493e-08 DIIS
   @DF-RHF iter  12:  -343.54756354030229   -6.52619e-10   1.79453e-08 DIIS
   @DF-RHF iter  13:  -343.54756354050357   -2.01283e-10   9.09888e-09 DIIS
   @DF-RHF iter  14:  -343.54756354056218   -5.86056e-11   4.38226e-09 DIIS
   @DF-RHF iter  15:  -343.54756354057412   -1.19371e-11   1.20020e-09 DIIS
   @DF-RHF iter  16:  -343.54756354057440   -2.84217e-13   4.61450e-10 DIIS
   @DF-RHF iter  17:  -343.54756354057417    2.27374e-13   1.37236e-10 DIIS
   @DF-RHF iter  18:  -343.54756354057503   -8.52651e-13   4.54750e-11 DIIS
  Energy and wave function converged.


  ==> Post-Iterations <==

    Orbital Energies [Eh]
    ---------------------

    Doubly Occupied:                                                      

       1A    -20.556391     2A    -11.339476     3A    -11.263286  
       4A    -11.260608     5A    -11.255773     6A    -11.253869  
       7A    -11.253479     8A    -11.251668     9A     -1.381935  
      10A     -1.171503    11A     -1.050261    12A     -1.033449  
      13A     -0.895132    14A     -0.846575    15A     -0.793123  
      16A     -0.719890    17A     -0.678032    18A     -0.652143  
      19A     -0.619574    20A     -0.614038    21A     -0.604469  
      22A     -0.552103    23A     -0.529742    24A     -0.510406  
      25A     -0.499884    26A     -0.431754    27A     -0.355908  
      28A     -0.351866  

    Virtual:                                                              

      29A      0.024123    30A      0.030076    31A      0.036424  
      32A      0.045577    33A      0.052256    34A      0.056319  
      35A      0.064208    36A      0.072218    37A      0.091206  
      38A      0.092372    39A      0.098502    40A      0.101087  
      41A      0.106846    42A      0.110984    43A      0.111972  
      44A      0.123646    45A      0.126485    46A      0.128120  
      47A      0.132845    48A      0.134377    49A      0.140160  
      50A      0.150794    51A      0.152719    52A      0.153908  
      53A      0.154515    54A      0.159492    55A      0.166501  
      56A      0.181073    57A      0.184427    58A      0.191133  
      59A      0.221123    60A      0.226998    61A      0.234333  
      62A      0.240554    63A      0.244001    64A      0.245087  
      65A      0.260210    66A      0.262739    67A      0.271112  
      68A      0.273488    69A      0.277866    70A      0.286354  
      71A      0.289223    72A      0.300529    73A      0.303669  
      74A      0.304993    75A      0.316439    76A      0.320521  
      77A      0.326862    78A      0.336140    79A      0.341131  
      80A      0.345457    81A      0.348491    82A      0.359514  
      83A      0.366363    84A      0.373723    85A      0.376937  
      86A      0.387495    87A      0.401622    88A      0.418106  
      89A      0.419200    90A      0.422074    91A      0.423110  
      92A      0.426679    93A      0.441474    94A      0.448256  
      95A      0.451408    96A      0.456111    97A      0.456660  
      98A      0.462071    99A      0.467991   100A      0.470376  
     101A      0.477658   102A      0.480292   103A      0.486236  
     104A      0.491632   105A      0.500033   106A      0.504450  
     107A      0.506538   108A      0.517858   109A      0.522736  
     110A      0.526978   111A      0.527170   112A      0.534753  
     113A      0.539984   114A      0.542937   115A      0.581203  
     116A      0.590129   117A      0.603211   118A      0.607128  
     119A      0.608614   120A      0.619653   121A      0.627960  
     122A      0.632929   123A      0.646130   124A      0.649163  
     125A      0.653192   126A      0.664408   127A      0.671111  
     128A      0.679876   129A      0.692755   130A      0.699137  
     131A      0.701888   132A      0.711713   133A      0.730813  
     134A      0.733994   135A      0.737416   136A      0.743555  
     137A      0.749401   138A      0.761681   139A      0.783151  
     140A      0.793033   141A      0.795406   142A      0.805544  
     143A      0.817914   144A      0.837022   145A      0.846608  
     146A      0.849389   147A      0.851197   148A      0.864074  
     149A      0.867699   150A      0.876924   151A      0.877080  
     152A      0.888116   153A      0.891405   154A      0.892794  
     155A      0.899136   156A      0.903732   157A      0.912660  
     158A      0.916363   159A      0.923043   160A      0.930576  
     161A      0.950569   162A      0.957168   163A      0.963316  
     164A      0.964036   165A      0.971941   166A      0.981460  
     167A      0.995182   168A      0.997920   169A      1.005295  
     170A      1.016224   171A      1.018513   172A      1.029927  
     173A      1.033058   174A      1.038971   175A      1.041091  
     176A      1.063707   177A      1.065306   178A      1.073109  
     179A      1.074157   180A      1.076977   181A      1.083917  
     182A      1.088853   183A      1.089789   184A      1.109020  
     185A      1.123283   186A      1.123646   187A      1.138056  
     188A      1.144171   189A      1.160383   190A      1.164824  
     191A      1.167097   192A      1.169128   193A      1.177603  
     194A      1.191645   195A      1.195585   196A      1.198300  
     197A      1.213176   198A      1.216599   199A      1.229337  
     200A      1.233935   201A      1.242501   202A      1.248336  
     203A      1.266380   204A      1.269126   205A      1.280468  
     206A      1.298981   207A      1.307087   208A      1.313459  
     209A      1.317090   210A      1.338097   211A      1.346498  
     212A      1.356391   213A      1.374532   214A      1.376947  
     215A      1.389211   216A      1.390041   217A      1.402788  
     218A      1.420411   219A      1.454882   220A      1.473631  
     221A      1.476442   222A      1.487377   223A      1.489807  
     224A      1.504457   225A      1.517016   226A      1.517854  
     227A      1.523927   228A      1.542688   229A      1.559944  
     230A      1.581856   231A      1.582050   232A      1.603481  
     233A      1.644260   234A      1.662215   235A      1.669694  
     236A      1.678863   237A      1.682241   238A      1.693615  
     239A      1.701438   240A      1.705248   241A      1.728222  
     242A      1.742794   243A      1.762387   244A      1.780081  
     245A      1.798686   246A      1.803902   247A      1.818970  
     248A      1.822068   249A      1.832010   250A      1.843080  
     251A      1.849552   252A      1.853986   253A      1.864147  
     254A      1.871652   255A      1.884256   256A      1.909451  
     257A      1.915881   258A      1.926145   259A      1.952461  
     260A      1.979227   261A      1.987659   262A      1.993691  
     263A      2.002253   264A      2.006302   265A      2.012956  
     266A      2.022279   267A      2.030629   268A      2.037962  
     269A      2.050747   270A      2.064919   271A      2.071166  
     272A      2.079182   273A      2.089898   274A      2.106992  
     275A      2.116585   276A      2.127330   277A      2.143964  
     278A      2.168865   279A      2.186544   280A      2.218319  
     281A      2.228368   282A      2.239376   283A      2.241441  
     284A      2.287069   285A      2.289553   286A      2.339991  
     287A      2.355404   288A      2.360371   289A      2.362070  
     290A      2.373223   291A      2.395181   292A      2.408119  
     293A      2.422690   294A      2.428638   295A      2.470121  
     296A      2.481458   297A      2.516645   298A      2.528896  
     299A      2.535516   300A      2.537497   301A      2.565076  
     302A      2.589168   303A      2.602036   304A      2.613000  
     305A      2.646004   306A      2.702898   307A      2.728217  
     308A      2.734538   309A      2.741077   310A      2.746693  
     311A      2.766818   312A      2.798044   313A      2.817321  
     314A      2.870348   315A      2.883609   316A      2.899829  
     317A      2.913802   318A      2.943310   319A      2.997897  
     320A      3.038125   321A      3.110338   322A      3.130921  
     323A      3.156251   324A      3.168129   325A      3.180760  
     326A      3.203053   327A      3.208871   328A      3.228555  
     329A      3.248145   330A      3.269643   331A      3.299947  
     332A      3.302878   333A      3.321583   334A      3.330215  
     335A      3.355005   336A      3.370818   337A      3.371170  
     338A      3.387108   339A      3.413517   340A      3.424137  
     341A      3.436389   342A      3.457755   343A      3.469438  
     344A      3.486121   345A      3.503227   346A      3.508071  
     347A      3.537473   348A      3.539490   349A      3.553709  
     350A      3.558382   351A      3.566768   352A      3.577242  
     353A      3.586047   354A      3.603589   355A      3.605700  
     356A      3.621381   357A      3.659513   358A      3.680063  
     359A      3.688377   360A      3.710844   361A      3.723081  
     362A      3.735657   363A      3.751131   364A      3.779165  
     365A      3.800935   366A      3.822200   367A      3.828112  
     368A      3.842094   369A      3.855514   370A      3.858095  
     371A      3.863952   372A      3.867601   373A      3.893834  
     374A      3.922608   375A      3.929539   376A      3.960032  
     377A      3.965070   378A      3.973803   379A      3.983816  
     380A      4.003276   381A      4.010053   382A      4.033408  
     383A      4.034367   384A      4.049100   385A      4.082566  
     386A      4.096339   387A      4.109742   388A      4.128998  
     389A      4.154933   390A      4.177228   391A      4.182060  
     392A      4.206009   393A      4.214214   394A      4.223409  
     395A      4.250233   396A      4.254522   397A      4.257344  
     398A      4.282013   399A      4.285561   400A      4.306726  
     401A      4.323361   402A      4.335257   403A      4.339727  
     404A      4.374597   405A      4.384382   406A      4.402814  
     407A      4.411499   408A      4.426384   409A      4.429054  
     410A      4.447445   411A      4.457448   412A      4.459737  
     413A      4.464185   414A      4.501031   415A      4.540826  
     416A      4.569881   417A      4.606725   418A      4.622154  
     419A      4.622335   420A      4.664834   421A      4.702078  
     422A      4.703703   423A      4.709466   424A      4.715349  
     425A      4.728915   426A      4.771586   427A      4.793501  
     428A      4.824551   429A      4.826589   430A      4.875335  
     431A      4.880832   432A      4.915278   433A      4.934687  
     434A      4.946628   435A      4.960975   436A      5.020950  
     437A      5.049853   438A      5.052222   439A      5.072789  
     440A      5.086522   441A      5.099574   442A      5.125410  
     443A      5.131984   444A      5.140345   445A      5.142059  
     446A      5.176258   447A      5.188084   448A      5.193673  
     449A      5.194352   450A      5.254427   451A      5.281094  
     452A      5.298268   453A      5.332873   454A      5.343974  
     455A      5.350095   456A      5.363815   457A      5.382225  
     458A      5.411594   459A      5.423560   460A      5.481400  
     461A      5.538986   462A      5.612985   463A      5.622049  
     464A      5.706268   465A      5.751960   466A      5.779197  
     467A      5.800134   468A      5.872179   469A      5.920353  
     470A      5.946909   471A      6.111835   472A      6.147898  
     473A      6.183525   474A      6.249903   475A      6.285793  
     476A      6.339853   477A      6.375685   478A      6.435505  
     479A      6.496670   480A      6.549814   481A      6.603771  
     482A      6.668313   483A      6.718123   484A      6.777768  
     485A      6.868933   486A      6.962960   487A      6.980591  
     488A      7.087468   489A      7.117634   490A      7.140752  
     491A      7.277613   492A      7.328569   493A      7.392836  
     494A      7.612935   495A      7.660149   496A      7.749628  
     497A      7.830401   498A      7.934293   499A     15.173167  
     500A     16.140468   501A     16.573872   502A     18.045763  
     503A     18.570503   504A     19.461946   505A     19.745521  
     506A     19.935814  

    Final Occupation by Irrep:
              A 
    DOCC [    28 ]

  @DF-RHF Final Energy:  -343.54756354057503

   => Energetics <=

    Nuclear Repulsion Energy =            320.8439968437924676
    One-Electron Energy =               -1101.3304424906609711
    Two-Electron Energy =                 436.9388821062935335
    Total Energy =                       -343.5475635405750268

Computation Completed

*** tstop() called on node97.bme.utexas.edu at Tue Nov  3 22:01:59 2020
Module time:
	user time   =     146.74 seconds =       2.45 minutes
	system time =      17.89 seconds =       0.30 minutes
	total time  =         31 seconds =       0.52 minutes
Total time:
	user time   =     146.74 seconds =       2.45 minutes
	system time =      17.89 seconds =       0.30 minutes
	total time  =         31 seconds =       0.52 minutes
   => Loading Basis Set <=

    Name: (AUG-CC-PVTZ AUX)
    Role: RIFIT
    Keyword: DF_BASIS_MP2
    atoms 1    entry O          line   264 file /home/xy3866/psi4conda/share/psi4/basis/aug-cc-pvtz-ri.gbs 
    atoms 2-8  entry C          line   148 file /home/xy3866/psi4conda/share/psi4/basis/aug-cc-pvtz-ri.gbs 
    atoms 9-14 entry H          line    30 file /home/xy3866/psi4conda/share/psi4/basis/aug-cc-pvtz-ri.gbs 


*** tstart() called on node97.bme.utexas.edu
*** at Tue Nov  3 22:02:00 2020


  //>>>>>>>>>>>>>>>>>>>>>>>>>>>>>>>>>>>//
  //               DFMP2               //
  //<<<<<<<<<<<<<<<<<<<<<<<<<<<<<<<<<<<//

	 --------------------------------------------------------
	                          DF-MP2                         
	      2nd-Order Density-Fitted Moller-Plesset Theory     
	              RMP2 Wavefunction,   8 Threads             
	                                                         
	        Rob Parrish, Justin Turney, Andy Simmonett,      
	           Ed Hohenstein, and C. David Sherrill          
	 --------------------------------------------------------

   => Auxiliary Basis Set <=

  Basis Set: (AUG-CC-PVTZ AUX)
    Blend: AUG-CC-PVTZ-RI
    Number of shells: 308
    Number of basis function: 1124
    Number of Cartesian functions: 1418
    Spherical Harmonics?: true
    Max angular momentum: 4

	 --------------------------------------------------------
	                 NBF =   506, NAUX =  1124
	 --------------------------------------------------------
	   CLASS    FOCC     OCC    AOCC    AVIR     VIR    FVIR
	   PAIRS       0      28      28     478     478       0
	 --------------------------------------------------------

  DFHelper Memory: AOs need 2.121 GiB; user supplied 22.352 GiB. Using in-core AOs.


         ------------------------------------------------------------
                                     CPHF                           
                                  Rob Parrish                       
         ------------------------------------------------------------

  ==> Geometry <==

    Molecular point group: c1
    Full point group: C1

    Geometry (in Angstrom), charge = 0, multiplicity = 1:

       Center              X                  Y                   Z               Mass       
    ------------   -----------------  -----------------  -----------------  -----------------
         O            2.777285277104    -0.415493101519    -0.000061330519    15.994914619570
         C            0.494448377104     0.233937998481    -0.000031430519    12.000000000000
         C           -0.400913622896     1.309583998481     0.000003569481    12.000000000000
         C            0.017711377104    -1.083808001519    -0.000009430519    12.000000000000
         C           -1.775177622896     1.069448998481     0.000066569481    12.000000000000
         C           -1.354287622896    -1.318554001519     0.000048569481    12.000000000000
         C           -2.251262622896    -0.243808001519     0.000085569481    12.000000000000
         C            1.951397377104     0.492404998481    -0.000089430519    12.000000000000
         H           -0.020443622896     2.330285998481    -0.000016430519     1.007825032230
         H            0.736083377104    -1.899717001519    -0.000033430519     1.007825032230
         H           -2.474153622896     1.902078998481     0.000095569481     1.007825032230
         H           -1.730838622896    -2.338511001519     0.000061569481     1.007825032230
         H           -3.322343622896    -0.431634001519     0.000133569481     1.007825032230
         H            2.242025377104     1.563986998481    -0.000148430519     1.007825032230

  Nuclear repulsion =  320.843996843792468
  Reference energy  = -343.547563540575027

  ==> Basis Set <==

  Basis Set: AUG-CC-PVTZ
    Blend: AUG-CC-PVTZ
    Number of shells: 166
    Number of basis function: 506
    Number of Cartesian functions: 590
    Spherical Harmonics?: true
    Max angular momentum: 3

  ==> CGRSolver (by Rob Parrish) <==

   Number of roots    =         1
   Preconditioning    =    JACOBI
   Convergence cutoff =     1E-06
   Maximum iterations =       100

  ==> CPHFRHamiltonian (by Rob Parrish) <== 

  ==> MemDFJK: Density-Fitted J/K Matrices <==

    J tasked:                   Yes
    K tasked:                   Yes
    wK tasked:                   No
    OpenMP threads:               8
    Memory [MiB]:             22888
    Algorithm:                 Disk
    Schwarz Cutoff:           1E-12
    Mask sparsity (%):       3.2472
    Fitting Condition:        1E-10

   => Auxiliary Basis Set <=

  Basis Set: (AUG-CC-PVTZ AUX)
    Blend: AUG-CC-PVTZ-JKFIT
    Number of shells: 324
    Number of basis function: 1108
    Number of Cartesian functions: 1378
    Spherical Harmonics?: true
    Max angular momentum: 4

  ==> CPHF Iterations <==

  => Iterations <=

             Iter  Converged  Remaining    Residual
  CGR           1          0          1   1.069E-01
  CGR           2          0          1   3.491E-02
  CGR           3          0          1   1.661E-02
  CGR           4          0          1   8.541E-03
  CGR           5          0          1   3.408E-03
  CGR           6          0          1   1.345E-03
  CGR           7          0          1   4.319E-04
  CGR           8          0          1   1.614E-04
  CGR           9          0          1   5.443E-05
  CGR          10          0          1   1.999E-05
  CGR          11          0          1   8.246E-06
  CGR          12          0          1   2.053E-06
  CGR          13          1          0   9.001E-07

    CGRSolver converged.

	-----------------------------------------------------------
	 ==================> DF-MP2 Energies <==================== 
	-----------------------------------------------------------
	 Reference Energy          =    -343.5475635405750268 [Eh]
	 Singles Energy            =      -0.0000000000000000 [Eh]
	 Same-Spin Energy          =      -0.3639819432266801 [Eh]
	 Opposite-Spin Energy      =      -1.1296896495379771 [Eh]
	 Correlation Energy        =      -1.4936715927646573 [Eh]
	 Total Energy              =    -345.0412351333396828 [Eh]
	-----------------------------------------------------------
	 ================> DF-SCS-MP2 Energies <================== 
	-----------------------------------------------------------
	 SCS Same-Spin Scale       =       0.3333333333333333 [-]
	 SCS Opposite-Spin Scale   =       1.2000000000000000 [-]
	 SCS Same-Spin Energy      =      -0.1213273144088934 [Eh]
	 SCS Opposite-Spin Energy  =      -1.3556275794455726 [Eh]
	 SCS Correlation Energy    =      -1.4769548938544659 [Eh]
	 SCS Total Energy          =    -345.0245184344294671 [Eh]
	-----------------------------------------------------------



Properties will be evaluated at  -0.000000,   0.000000,  -0.000000 [a0]

Properties computed using the MP2 density matrix

  Nuclear Dipole Moment: [e a0]
     X:    -4.2706      Y:     1.0541      Z:     0.0001

  Electronic Dipole Moment: [e a0]
     X:     3.1283      Y:    -0.5410      Z:    -0.0001

  Dipole Moment: [e a0]
     X:    -1.1423      Y:     0.5131      Z:     0.0000     Total:     1.2522

  Dipole Moment: [D]
     X:    -2.9034      Y:     1.3041      Z:     0.0000     Total:     3.1829


*** tstop() called on node97.bme.utexas.edu at Tue Nov  3 22:03:08 2020
Module time:
	user time   =     375.29 seconds =       6.25 minutes
	system time =      18.51 seconds =       0.31 minutes
	total time  =         68 seconds =       1.13 minutes
Total time:
	user time   =     522.16 seconds =       8.70 minutes
	system time =      36.40 seconds =       0.61 minutes
	total time  =        100 seconds =       1.67 minutes

    Psi4 stopped on: Tuesday, 03 November 2020 10:03PM
    Psi4 wall time for execution: 0:01:39.76

*** Psi4 exiting successfully. Buy a developer a beer!
