79143                                                                   
Freq      RMP2-FC                                                     6-31G(d)            
Number of atoms                            I               16
Info1-9                                    I   N=           9
          28          26        1002           0           0         100
           6           2           1
Charge                                     I                0
Multiplicity                               I                1
Number of electrons                        I               66
Number of alpha electrons                  I               33
Number of beta electrons                   I               33
Number of basis functions                  I              149
Number of independent functions            I              149
Number of point charges in /Mol/           I                0
Number of translation vectors              I                0
Atomic numbers                             I   N=          16
           8           7           7           7           6           6
           6           6           6           1           1           1
           1           1           1           1
Nuclear charges                            R   N=          16
  8.00000000E+00  7.00000000E+00  7.00000000E+00  7.00000000E+00  6.00000000E+00
  6.00000000E+00  6.00000000E+00  6.00000000E+00  6.00000000E+00  1.00000000E+00
  1.00000000E+00  1.00000000E+00  1.00000000E+00  1.00000000E+00  1.00000000E+00
  1.00000000E+00
Current cartesian coordinates              R   N=          48
 -2.75953184E+00 -3.40958700E+00 -1.62348154E-03 -2.09135972E+00  8.49357566E-01
  2.69524798E-03  1.38676651E+00 -2.03670139E+00  1.07699188E-02  5.45610886E+00
 -5.56343875E-01 -1.25740595E-01 -4.86829693E-01  2.85011765E+00 -5.38916893E-04
  2.06259791E+00  2.49990651E+00 -9.06439216E-03 -1.19366384E+00 -1.69211938E+00
 -2.80021274E-03 -4.83080316E+00  1.17049008E+00  9.26696765E-03  2.91111893E+00
 -6.56733764E-02 -1.11994965E-04 -1.35071443E+00  4.71314608E+00 -4.17907509E-03
  3.35352388E+00  4.08897390E+00 -4.65862824E-02 -5.26008033E+00  3.18682516E+00
  7.84678172E-03 -5.63185568E+00  2.70839821E-01  1.68250047E+00 -5.63895077E+00
  2.66789552E-01 -1.65822004E+00  6.65315353E+00  7.55913605E-01  5.79824709E-01
  5.91604808E+00 -2.37630710E+00  2.57220582E-01
Force Field                                I                0
Int Atom Types                             I   N=          16
           0           0           0           0           0           0
           0           0           0           0           0           0
           0           0           0           0
MM charges                                 R   N=          16
  0.00000000E+00  0.00000000E+00  0.00000000E+00  0.00000000E+00  0.00000000E+00
  0.00000000E+00  0.00000000E+00  0.00000000E+00  0.00000000E+00  0.00000000E+00
  0.00000000E+00  0.00000000E+00  0.00000000E+00  0.00000000E+00  0.00000000E+00
  0.00000000E+00
Integer atomic weights                     I   N=          16
          16          14          14          14          12          12
          12          12          12           1           1           1
           1           1           1           1
Real atomic weights                        R   N=          16
  1.59949146E+01  1.40030740E+01  1.40030740E+01  1.40030740E+01  1.20000000E+01
  1.20000000E+01  1.20000000E+01  1.20000000E+01  1.20000000E+01  1.00782504E+00
  1.00782504E+00  1.00782504E+00  1.00782504E+00  1.00782504E+00  1.00782504E+00
  1.00782504E+00
Atom fragment info                         I   N=          16
           0           0           0           0           0           0
           0           0           0           0           0           0
           0           0           0           0
Atom residue num                           I   N=          16
           0           0           0           0           0           0
           0           0           0           0           0           0
           0           0           0           0
Nuclear spins                              I   N=          16
           0           2           2           2           0           0
           0           0           0           1           1           1
           1           1           1           1
Nuclear ZEff                               R   N=          16
 -5.60000000E+00 -4.55000000E+00 -4.55000000E+00 -4.55000000E+00 -3.60000000E+00
 -3.60000000E+00 -3.60000000E+00 -3.60000000E+00 -3.60000000E+00 -1.00000000E+00
 -1.00000000E+00 -1.00000000E+00 -1.00000000E+00 -1.00000000E+00 -1.00000000E+00
 -1.00000000E+00
Nuclear QMom                               R   N=          16
  0.00000000E+00  2.04400000E+00  2.04400000E+00  2.04400000E+00  0.00000000E+00
  0.00000000E+00  0.00000000E+00  0.00000000E+00  0.00000000E+00  0.00000000E+00
  0.00000000E+00  0.00000000E+00  0.00000000E+00  0.00000000E+00  0.00000000E+00
  0.00000000E+00
Nuclear GFac                               R   N=          16
  0.00000000E+00  4.03761000E-01  4.03761000E-01  4.03761000E-01  0.00000000E+00
  0.00000000E+00  0.00000000E+00  0.00000000E+00  0.00000000E+00  2.79284600E+00
  2.79284600E+00  2.79284600E+00  2.79284600E+00  2.79284600E+00  2.79284600E+00
  2.79284600E+00
MicOpt                                     I   N=          16
          -1          -1          -1          -1          -1          -1
          -1          -1          -1          -1          -1          -1
          -1          -1          -1          -1
Number of contracted shells                I               50
Number of primitive shells                 I              127
Pure/Cartesian d shells                    I                1
Pure/Cartesian f shells                    I                0
Highest angular momentum                   I                2
Largest degree of contraction              I                6
Shell types                                I   N=          50
           0          -1          -1           2           0          -1
          -1           2           0          -1          -1           2
           0          -1          -1           2           0          -1
          -1           2           0          -1          -1           2
           0          -1          -1           2           0          -1
          -1           2           0          -1          -1           2
           0           0           0           0           0           0
           0           0           0           0           0           0
           0           0
Number of primitives per shell             I   N=          50
           6           3           1           1           6           3
           1           1           6           3           1           1
           6           3           1           1           6           3
           1           1           6           3           1           1
           6           3           1           1           6           3
           1           1           6           3           1           1
           3           1           3           1           3           1
           3           1           3           1           3           1
           3           1
Shell to atom map                          I   N=          50
           1           1           1           1           2           2
           2           2           3           3           3           3
           4           4           4           4           5           5
           5           5           6           6           6           6
           7           7           7           7           8           8
           8           8           9           9           9           9
          10          10          11          11          12          12
          13          13          14          14          15          15
          16          16
Primitive exponents                        R   N=         127
  5.48467166E+03  8.25234946E+02  1.88046958E+02  5.29645000E+01  1.68975704E+01
  5.79963534E+00  1.55396162E+01  3.59993359E+00  1.01376175E+00  2.70005823E-01
  8.00000000E-01  4.17351146E+03  6.27457911E+02  1.42902093E+02  4.02343293E+01
  1.28202129E+01  4.39043701E+00  1.16263619E+01  2.71627981E+00  7.72218397E-01
  2.12031498E-01  8.00000000E-01  4.17351146E+03  6.27457911E+02  1.42902093E+02
  4.02343293E+01  1.28202129E+01  4.39043701E+00  1.16263619E+01  2.71627981E+00
  7.72218397E-01  2.12031498E-01  8.00000000E-01  4.17351146E+03  6.27457911E+02
  1.42902093E+02  4.02343293E+01  1.28202129E+01  4.39043701E+00  1.16263619E+01
  2.71627981E+00  7.72218397E-01  2.12031498E-01  8.00000000E-01  3.04752488E+03
  4.57369518E+02  1.03948685E+02  2.92101553E+01  9.28666296E+00  3.16392696E+00
  7.86827235E+00  1.88128854E+00  5.44249258E-01  1.68714478E-01  8.00000000E-01
  3.04752488E+03  4.57369518E+02  1.03948685E+02  2.92101553E+01  9.28666296E+00
  3.16392696E+00  7.86827235E+00  1.88128854E+00  5.44249258E-01  1.68714478E-01
  8.00000000E-01  3.04752488E+03  4.57369518E+02  1.03948685E+02  2.92101553E+01
  9.28666296E+00  3.16392696E+00  7.86827235E+00  1.88128854E+00  5.44249258E-01
  1.68714478E-01  8.00000000E-01  3.04752488E+03  4.57369518E+02  1.03948685E+02
  2.92101553E+01  9.28666296E+00  3.16392696E+00  7.86827235E+00  1.88128854E+00
  5.44249258E-01  1.68714478E-01  8.00000000E-01  3.04752488E+03  4.57369518E+02
  1.03948685E+02  2.92101553E+01  9.28666296E+00  3.16392696E+00  7.86827235E+00
  1.88128854E+00  5.44249258E-01  1.68714478E-01  8.00000000E-01  1.87311370E+01
  2.82539436E+00  6.40121692E-01  1.61277759E-01  1.87311370E+01  2.82539436E+00
  6.40121692E-01  1.61277759E-01  1.87311370E+01  2.82539436E+00  6.40121692E-01
  1.61277759E-01  1.87311370E+01  2.82539436E+00  6.40121692E-01  1.61277759E-01
  1.87311370E+01  2.82539436E+00  6.40121692E-01  1.61277759E-01  1.87311370E+01
  2.82539436E+00  6.40121692E-01  1.61277759E-01  1.87311370E+01  2.82539436E+00
  6.40121692E-01  1.61277759E-01
Contraction coefficients                   R   N=         127
  1.83107443E-03  1.39501722E-02  6.84450781E-02  2.32714336E-01  4.70192898E-01
  3.58520853E-01 -1.10777550E-01 -1.48026263E-01  1.13076702E+00  1.00000000E+00
  1.00000000E+00  1.83477216E-03  1.39946270E-02  6.85865518E-02  2.32240873E-01
  4.69069948E-01  3.60455199E-01 -1.14961182E-01 -1.69117479E-01  1.14585195E+00
  1.00000000E+00  1.00000000E+00  1.83477216E-03  1.39946270E-02  6.85865518E-02
  2.32240873E-01  4.69069948E-01  3.60455199E-01 -1.14961182E-01 -1.69117479E-01
  1.14585195E+00  1.00000000E+00  1.00000000E+00  1.83477216E-03  1.39946270E-02
  6.85865518E-02  2.32240873E-01  4.69069948E-01  3.60455199E-01 -1.14961182E-01
 -1.69117479E-01  1.14585195E+00  1.00000000E+00  1.00000000E+00  1.83473713E-03
  1.40373228E-02  6.88426223E-02  2.32184443E-01  4.67941348E-01  3.62311985E-01
 -1.19332420E-01 -1.60854152E-01  1.14345644E+00  1.00000000E+00  1.00000000E+00
  1.83473713E-03  1.40373228E-02  6.88426223E-02  2.32184443E-01  4.67941348E-01
  3.62311985E-01 -1.19332420E-01 -1.60854152E-01  1.14345644E+00  1.00000000E+00
  1.00000000E+00  1.83473713E-03  1.40373228E-02  6.88426223E-02  2.32184443E-01
  4.67941348E-01  3.62311985E-01 -1.19332420E-01 -1.60854152E-01  1.14345644E+00
  1.00000000E+00  1.00000000E+00  1.83473713E-03  1.40373228E-02  6.88426223E-02
  2.32184443E-01  4.67941348E-01  3.62311985E-01 -1.19332420E-01 -1.60854152E-01
  1.14345644E+00  1.00000000E+00  1.00000000E+00  1.83473713E-03  1.40373228E-02
  6.88426223E-02  2.32184443E-01  4.67941348E-01  3.62311985E-01 -1.19332420E-01
 -1.60854152E-01  1.14345644E+00  1.00000000E+00  1.00000000E+00  3.34946043E-02
  2.34726953E-01  8.13757326E-01  1.00000000E+00  3.34946043E-02  2.34726953E-01
  8.13757326E-01  1.00000000E+00  3.34946043E-02  2.34726953E-01  8.13757326E-01
  1.00000000E+00  3.34946043E-02  2.34726953E-01  8.13757326E-01  1.00000000E+00
  3.34946043E-02  2.34726953E-01  8.13757326E-01  1.00000000E+00  3.34946043E-02
  2.34726953E-01  8.13757326E-01  1.00000000E+00  3.34946043E-02  2.34726953E-01
  8.13757326E-01  1.00000000E+00
P(S=P) Contraction coefficients            R   N=         127
  0.00000000E+00  0.00000000E+00  0.00000000E+00  0.00000000E+00  0.00000000E+00
  0.00000000E+00  7.08742682E-02  3.39752839E-01  7.27158577E-01  1.00000000E+00
  0.00000000E+00  0.00000000E+00  0.00000000E+00  0.00000000E+00  0.00000000E+00
  0.00000000E+00  0.00000000E+00  6.75797439E-02  3.23907296E-01  7.40895140E-01
  1.00000000E+00  0.00000000E+00  0.00000000E+00  0.00000000E+00  0.00000000E+00
  0.00000000E+00  0.00000000E+00  0.00000000E+00  6.75797439E-02  3.23907296E-01
  7.40895140E-01  1.00000000E+00  0.00000000E+00  0.00000000E+00  0.00000000E+00
  0.00000000E+00  0.00000000E+00  0.00000000E+00  0.00000000E+00  6.75797439E-02
  3.23907296E-01  7.40895140E-01  1.00000000E+00  0.00000000E+00  0.00000000E+00
  0.00000000E+00  0.00000000E+00  0.00000000E+00  0.00000000E+00  0.00000000E+00
  6.89990666E-02  3.16423961E-01  7.44308291E-01  1.00000000E+00  0.00000000E+00
  0.00000000E+00  0.00000000E+00  0.00000000E+00  0.00000000E+00  0.00000000E+00
  0.00000000E+00  6.89990666E-02  3.16423961E-01  7.44308291E-01  1.00000000E+00
  0.00000000E+00  0.00000000E+00  0.00000000E+00  0.00000000E+00  0.00000000E+00
  0.00000000E+00  0.00000000E+00  6.89990666E-02  3.16423961E-01  7.44308291E-01
  1.00000000E+00  0.00000000E+00  0.00000000E+00  0.00000000E+00  0.00000000E+00
  0.00000000E+00  0.00000000E+00  0.00000000E+00  6.89990666E-02  3.16423961E-01
  7.44308291E-01  1.00000000E+00  0.00000000E+00  0.00000000E+00  0.00000000E+00
  0.00000000E+00  0.00000000E+00  0.00000000E+00  0.00000000E+00  6.89990666E-02
  3.16423961E-01  7.44308291E-01  1.00000000E+00  0.00000000E+00  0.00000000E+00
  0.00000000E+00  0.00000000E+00  0.00000000E+00  0.00000000E+00  0.00000000E+00
  0.00000000E+00  0.00000000E+00  0.00000000E+00  0.00000000E+00  0.00000000E+00
  0.00000000E+00  0.00000000E+00  0.00000000E+00  0.00000000E+00  0.00000000E+00
  0.00000000E+00  0.00000000E+00  0.00000000E+00  0.00000000E+00  0.00000000E+00
  0.00000000E+00  0.00000000E+00  0.00000000E+00  0.00000000E+00  0.00000000E+00
  0.00000000E+00  0.00000000E+00
Coordinates of each shell                  R   N=         150
 -2.75953184E+00 -3.40958700E+00 -1.62348154E-03 -2.75953184E+00 -3.40958700E+00
 -1.62348154E-03 -2.75953184E+00 -3.40958700E+00 -1.62348154E-03 -2.75953184E+00
 -3.40958700E+00 -1.62348154E-03 -2.09135972E+00  8.49357566E-01  2.69524798E-03
 -2.09135972E+00  8.49357566E-01  2.69524798E-03 -2.09135972E+00  8.49357566E-01
  2.69524798E-03 -2.09135972E+00  8.49357566E-01  2.69524798E-03  1.38676651E+00
 -2.03670139E+00  1.07699188E-02  1.38676651E+00 -2.03670139E+00  1.07699188E-02
  1.38676651E+00 -2.03670139E+00  1.07699188E-02  1.38676651E+00 -2.03670139E+00
  1.07699188E-02  5.45610886E+00 -5.56343875E-01 -1.25740595E-01  5.45610886E+00
 -5.56343875E-01 -1.25740595E-01  5.45610886E+00 -5.56343875E-01 -1.25740595E-01
  5.45610886E+00 -5.56343875E-01 -1.25740595E-01 -4.86829693E-01  2.85011765E+00
 -5.38916893E-04 -4.86829693E-01  2.85011765E+00 -5.38916893E-04 -4.86829693E-01
  2.85011765E+00 -5.38916893E-04 -4.86829693E-01  2.85011765E+00 -5.38916893E-04
  2.06259791E+00  2.49990651E+00 -9.06439216E-03  2.06259791E+00  2.49990651E+00
 -9.06439216E-03  2.06259791E+00  2.49990651E+00 -9.06439216E-03  2.06259791E+00
  2.49990651E+00 -9.06439216E-03 -1.19366384E+00 -1.69211938E+00 -2.80021274E-03
 -1.19366384E+00 -1.69211938E+00 -2.80021274E-03 -1.19366384E+00 -1.69211938E+00
 -2.80021274E-03 -1.19366384E+00 -1.69211938E+00 -2.80021274E-03 -4.83080316E+00
  1.17049008E+00  9.26696765E-03 -4.83080316E+00  1.17049008E+00  9.26696765E-03
 -4.83080316E+00  1.17049008E+00  9.26696765E-03 -4.83080316E+00  1.17049008E+00
  9.26696765E-03  2.91111893E+00 -6.56733764E-02 -1.11994965E-04  2.91111893E+00
 -6.56733764E-02 -1.11994965E-04  2.91111893E+00 -6.56733764E-02 -1.11994965E-04
  2.91111893E+00 -6.56733764E-02 -1.11994965E-04 -1.35071443E+00  4.71314608E+00
 -4.17907509E-03 -1.35071443E+00  4.71314608E+00 -4.17907509E-03  3.35352388E+00
  4.08897390E+00 -4.65862824E-02  3.35352388E+00  4.08897390E+00 -4.65862824E-02
 -5.26008033E+00  3.18682516E+00  7.84678172E-03 -5.26008033E+00  3.18682516E+00
  7.84678172E-03 -5.63185568E+00  2.70839821E-01  1.68250047E+00 -5.63185568E+00
  2.70839821E-01  1.68250047E+00 -5.63895077E+00  2.66789552E-01 -1.65822004E+00
 -5.63895077E+00  2.66789552E-01 -1.65822004E+00  6.65315353E+00  7.55913605E-01
  5.79824709E-01  6.65315353E+00  7.55913605E-01  5.79824709E-01  5.91604808E+00
 -2.37630710E+00  2.57220582E-01  5.91604808E+00 -2.37630710E+00  2.57220582E-01
Constraint Structure                       R   N=          48
 -2.75953184E+00 -3.40958700E+00 -1.62348154E-03 -2.09135972E+00  8.49357566E-01
  2.69524798E-03  1.38676651E+00 -2.03670139E+00  1.07699188E-02  5.45610886E+00
 -5.56343875E-01 -1.25740595E-01 -4.86829693E-01  2.85011765E+00 -5.38916893E-04
  2.06259791E+00  2.49990651E+00 -9.06439216E-03 -1.19366384E+00 -1.69211938E+00
 -2.80021274E-03 -4.83080316E+00  1.17049008E+00  9.26696765E-03  2.91111893E+00
 -6.56733764E-02 -1.11994965E-04 -1.35071443E+00  4.71314608E+00 -4.17907509E-03
  3.35352388E+00  4.08897390E+00 -4.65862824E-02 -5.26008033E+00  3.18682516E+00
  7.84678172E-03 -5.63185568E+00  2.70839821E-01  1.68250047E+00 -5.63895077E+00
  2.66789552E-01 -1.65822004E+00  6.65315353E+00  7.55913605E-01  5.79824709E-01
  5.91604808E+00 -2.37630710E+00  2.57220582E-01
Num ILSW                                   I              100
ILSW                                       I   N=         100
           0           1           0           0           2           0
           0           0           0           0           0          -1
           0           0           0           0           0           0
           0           0           0           0           1           0
           1           0           0           0           0           0
           0           0      100000           0          -1           0
           0           0           0           0           0           0
           0           0           0           1           1           0
           0           0           1           0           0           0
           0           0           4          40           0           0
           0           0           0           0           0           0
           0           0           0           0           0           0
           0           0           0           0           0           0
           0           0           0           0           0           0
           0           0           0           0           0           0
           0           0           0           0           0           0
           0           0           0           0
Num RLSW                                   I               40
RLSW                                       R   N=          40
  1.00000000E+00  1.00000000E+00  1.00000000E+00  1.00000000E+00  1.00000000E+00
  0.00000000E+00  0.00000000E+00  1.00000000E+00  0.00000000E+00  0.00000000E+00
  0.00000000E+00  0.00000000E+00  1.00000000E+00  0.00000000E+00  0.00000000E+00
  0.00000000E+00  0.00000000E+00  1.00000000E+00  0.00000000E+00  0.00000000E+00
  0.00000000E+00  0.00000000E+00  1.00000000E+00  0.00000000E+00  0.00000000E+00
  0.00000000E+00  0.00000000E+00  1.00000000E+00  0.00000000E+00  0.00000000E+00
  0.00000000E+00  0.00000000E+00  0.00000000E+00  0.00000000E+00  0.00000000E+00
  0.00000000E+00  0.00000000E+00  0.00000000E+00  1.00000000E+00  1.00000000E+00
MxBond                                     I                4
NBond                                      I   N=          16
           1           3           2           3           3           3
           3           4           3           1           1           1
           1           1           1           1
IBond                                      I   N=          64
           7           0           0           0           5           7
           8           0           7           9           0           0
           9          15          16           0           2           6
          10           0           5           9          11           0
           1           2           3           0           2          12
          13          14           3           4           6           0
           5           0           0           0           6           0
           0           0           8           0           0           0
           8           0           0           0           8           0
           0           0           4           0           0           0
           4           0           0           0
RBond                                      R   N=          64
  2.00000000E+00  0.00000000E+00  0.00000000E+00  0.00000000E+00  1.00000000E+00
  1.00000000E+00  1.00000000E+00  0.00000000E+00  1.00000000E+00  2.00000000E+00
  0.00000000E+00  0.00000000E+00  1.00000000E+00  1.00000000E+00  1.00000000E+00
  0.00000000E+00  1.00000000E+00  2.00000000E+00  1.00000000E+00  0.00000000E+00
  2.00000000E+00  1.00000000E+00  1.00000000E+00  0.00000000E+00  2.00000000E+00
  1.00000000E+00  1.00000000E+00  0.00000000E+00  1.00000000E+00  1.00000000E+00
  1.00000000E+00  1.00000000E+00  2.00000000E+00  1.00000000E+00  1.00000000E+00
  0.00000000E+00  1.00000000E+00  0.00000000E+00  0.00000000E+00  0.00000000E+00
  1.00000000E+00  0.00000000E+00  0.00000000E+00  0.00000000E+00  1.00000000E+00
  0.00000000E+00  0.00000000E+00  0.00000000E+00  1.00000000E+00  0.00000000E+00
  0.00000000E+00  0.00000000E+00  1.00000000E+00  0.00000000E+00  0.00000000E+00
  0.00000000E+00  1.00000000E+00  0.00000000E+00  0.00000000E+00  0.00000000E+00
  1.00000000E+00  0.00000000E+00  0.00000000E+00  0.00000000E+00
Virial Ratio                               R      2.002833928857777E+00
SCF Energy                                 R     -4.316404185524014E+02
MP2 Energy                                 R     -4.329299636107202E+02
Total Energy                               R     -4.329299636107202E+02
Post-SCF wavefunction norm                 R      1.684434137993214E+00
RMS Force                                  R      3.012195047294143E-07
RMS Density                                R      3.328252282319691E-09
External E-field                           R   N=          35
  0.00000000E+00  0.00000000E+00  0.00000000E+00  0.00000000E+00  0.00000000E+00
  0.00000000E+00  0.00000000E+00  0.00000000E+00  0.00000000E+00  0.00000000E+00
  0.00000000E+00  0.00000000E+00  0.00000000E+00  0.00000000E+00  0.00000000E+00
  0.00000000E+00  0.00000000E+00  0.00000000E+00  0.00000000E+00  0.00000000E+00
  0.00000000E+00  0.00000000E+00  0.00000000E+00  0.00000000E+00  0.00000000E+00
  0.00000000E+00  0.00000000E+00  0.00000000E+00  0.00000000E+00  0.00000000E+00
  0.00000000E+00  0.00000000E+00  0.00000000E+00  0.00000000E+00  0.00000000E+00
IOpCl                                      I                0
IROHF                                      I                0
Alpha Orbital Energies                     R   N=         149
 -2.05049886E+01 -1.56291674E+01 -1.55915866E+01 -1.55402387E+01 -1.13685394E+01
 -1.13475267E+01 -1.13290926E+01 -1.12737500E+01 -1.12432725E+01 -1.37857131E+00
 -1.29111881E+00 -1.26434950E+00 -1.16701412E+00 -1.07003613E+00 -9.63804070E-01
 -8.96066354E-01 -8.51134901E-01 -7.55133997E-01 -7.21298670E-01 -6.83315656E-01
 -6.70888330E-01 -6.51415361E-01 -6.17727949E-01 -5.98140986E-01 -5.86253677E-01
 -5.72185207E-01 -5.63410671E-01 -5.10982483E-01 -4.74731836E-01 -4.32809245E-01
 -4.10219028E-01 -3.76524888E-01 -3.30375688E-01  1.10756198E-01  1.78736438E-01
  2.16038535E-01  2.22677594E-01  2.59663422E-01  2.83098949E-01  2.98866437E-01
  3.12305328E-01  3.20210017E-01  3.31676619E-01  3.57816572E-01  4.26573980E-01
  4.37834545E-01  4.98176275E-01  5.26602908E-01  5.32003302E-01  5.34599420E-01
  5.83557855E-01  6.83946322E-01  6.87404897E-01  7.13592314E-01  7.40900618E-01
  7.53901199E-01  7.82373461E-01  8.11542282E-01  8.16774799E-01  8.47934369E-01
  8.60780176E-01  8.79173700E-01  9.07096218E-01  9.17206747E-01  9.41507805E-01
  9.53387534E-01  9.84785251E-01  1.00885785E+00  1.04486004E+00  1.05657923E+00
  1.07309103E+00  1.10225840E+00  1.11102221E+00  1.12758076E+00  1.15208709E+00
  1.16710864E+00  1.19413182E+00  1.19534830E+00  1.20330109E+00  1.21201650E+00
  1.22810222E+00  1.24000186E+00  1.28350170E+00  1.36031069E+00  1.38072125E+00
  1.39249216E+00  1.41384437E+00  1.47875110E+00  1.49277654E+00  1.53193426E+00
  1.59011242E+00  1.60093912E+00  1.63684771E+00  1.66163882E+00  1.69161752E+00
  1.71656289E+00  1.75535964E+00  1.76264744E+00  1.83437697E+00  1.87646036E+00
  2.02188082E+00  2.05459022E+00  2.09868972E+00  2.11976156E+00  2.14903354E+00
  2.17385721E+00  2.18972391E+00  2.20327609E+00  2.24943655E+00  2.26054411E+00
  2.30073735E+00  2.30223438E+00  2.33555820E+00  2.34009282E+00  2.41717940E+00
  2.47780419E+00  2.49290303E+00  2.51391801E+00  2.52111947E+00  2.60816509E+00
  2.62697646E+00  2.66030840E+00  2.67727042E+00  2.69343449E+00  2.76825311E+00
  2.77438849E+00  2.79864979E+00  2.86002790E+00  2.94383772E+00  2.99930343E+00
  3.01972942E+00  3.05636591E+00  3.06183037E+00  3.11859390E+00  3.19471541E+00
  3.22894640E+00  3.37066448E+00  3.39789771E+00  3.63802081E+00  3.81324847E+00
  4.24262581E+00  4.40294444E+00  4.46434689E+00  4.54623380E+00  4.63309550E+00
  4.71481100E+00  4.77486619E+00  4.96652606E+00  5.03778484E+00
Alpha MO coefficients                      R   N=       22201
  9.94685003E-01  2.09864989E-02  1.01421285E-03  1.19609268E-03 -5.45580211E-07
  4.52717521E-03 -1.33580494E-06 -4.56213587E-05  1.62168278E-07 -3.79898233E-03
 -3.77254519E-03 -4.10561795E-03  1.62025058E-04 -1.64224110E-07 -1.02072662E-07
 -1.51541900E-05 -5.36805305E-05 -7.99380112E-06  5.43841913E-05 -4.72116044E-09
  2.73300406E-04  8.18701136E-05 -1.16744221E-04  3.90828588E-07  1.84446975E-05
 -9.88707301E-05 -6.05590875E-05 -5.79560047E-05 -3.17196875E-07  2.20529772E-08
 -2.10762050E-05 -8.00565169E-05  2.02499710E-05  1.34557850E-05  1.48087457E-07
  5.57324655E-04 -2.72419114E-04  1.52357493E-04 -1.29486567E-06 -4.52666338E-05
 -1.81418823E-05 -8.01257909E-05 -1.15545780E-04  8.55743863E-07 -6.94605170E-07
  4.65123036E-06  1.82364819E-05 -3.27742859E-06  2.23631420E-06  8.57817490E-07
 -2.36997794E-04  6.29696176E-05 -4.76107376E-06 -1.08627111E-05  1.58387903E-05
  8.11196786E-06  7.44966025E-06 -5.29260802E-06 -9.76299806E-07 -5.24439252E-07
  5.13552952E-06  2.88410304E-05 -1.98667443E-05 -1.39621225E-05  2.78834467E-08
 -2.99988824E-04 -1.53878794E-04  1.85441292E-04 -1.63554386E-07  3.09564903E-05
 -8.03070346E-06  9.43640768E-06  2.76605781E-05 -1.48958882E-07 -1.73199050E-07
 -3.76376211E-06 -1.83679870E-05 -6.31397786E-07 -8.15580156E-06 -1.90606607E-07
  4.81115536E-04 -1.82473702E-04 -2.11462860E-04  3.51135914E-06 -9.30452777E-06
 -7.69164092E-07 -2.92999323E-06  1.55857344E-05 -8.12833840E-08 -2.35706456E-07
 -7.04913286E-06  5.21581721E-04  5.92908962E-06  4.75763266E-06 -3.75271206E-07
 -8.09677967E-04  1.04812776E-04  3.83279848E-04 -1.29269033E-06 -4.22902498E-04
 -4.47268497E-04 -5.00909958E-05 -4.43492134E-04  1.17502565E-07  1.37286663E-07
  6.67564131E-07  2.99468323E-05 -5.25359931E-06 -1.35572310E-05  7.76928147E-08
  4.42887991E-05 -5.76403099E-05  1.35612737E-04 -5.11244344E-07 -2.53897916E-05
 -1.42340462E-05 -8.40089715E-06  9.42540851E-06  3.98760880E-08 -6.94935054E-08
  5.56734539E-06  4.52853498E-05 -1.53987232E-05 -1.73466062E-05  5.58395563E-07
 -2.97781409E-04  4.03997237E-04 -1.63380310E-04 -4.00708995E-06 -3.03847779E-05
  4.08145092E-05  6.54865565E-06  1.46814827E-05 -4.02308789E-07 -2.14500657E-07
 -5.91415510E-06 -6.44352687E-05  4.00045269E-06  6.98048616E-05 -9.85591369E-06
 -8.92271450E-05  2.83645393E-05 -4.28833960E-05  2.84510879E-05 -4.41822992E-05
  7.80773675E-06 -2.43138584E-06  1.12801628E-06  1.37227170E-05 -7.34440523E-06
 -7.55263751E-05 -2.89522575E-05 -1.35796224E-05  3.17562547E-07  4.02339305E-04
  2.60456759E-04 -1.63428753E-04 -1.57981567E-06  2.10121552E-05 -8.94127510E-05
 -6.01987156E-05 -3.23510508E-06 -3.32726262E-07  3.28618907E-08  9.95027021E-01
  2.53931818E-02  1.73508594E-04  2.06825914E-04  2.14463125E-06 -4.87628480E-03
 -7.84275385E-04  2.66678673E-05  3.66149944E-08 -3.36065022E-03 -3.29148925E-03
 -3.21203280E-03  6.19127198E-05  5.54657698E-08 -1.44417232E-06 -9.19599916E-05
  5.76260161E-05  4.19162468E-05  4.01373895E-06 -3.78304852E-07 -6.22089411E-04
 -6.03763202E-05 -5.99200473E-04  9.00074252E-07  4.86737378E-05  1.28043299E-06
  2.65595675E-05  4.96849082E-05  7.93467649E-07  6.13818854E-07  1.08887388E-05
 -1.32241750E-06  1.00639036E-05  9.46523398E-06  1.80266356E-07  2.81537810E-05
 -9.94719415E-06 -1.32318423E-04 -4.36274261E-06 -9.37528218E-06  1.49702636E-06
 -7.94813544E-06  1.28727604E-05 -3.04817942E-06 -7.92696828E-06  1.72152383E-05
  1.82258870E-04 -1.28155127E-04 -1.32105062E-04 -1.01439206E-07  2.57030322E-03
  6.39925605E-05 -1.61780611E-03  5.12304772E-06 -1.18667282E-04 -1.29694249E-04
 -7.60261897E-05 -9.46210633E-05  5.33270696E-07  1.78809554E-08  2.96049124E-05
  1.36714787E-04  3.58223735E-05 -2.64097163E-05  1.65694893E-06 -1.87832744E-03
  6.90187436E-04  1.22996767E-03 -1.61461734E-05 -6.05667512E-07  2.78590675E-05
  3.78889972E-05 -2.28750483E-05 -5.65266343E-07  2.06019281E-07  6.44137989E-06
  1.66429515E-04 -8.07939875E-05  2.41756378E-04  3.91688483E-07  1.45539104E-03
 -1.17134128E-04  1.47048815E-03  3.55898874E-06 -6.01227751E-05 -6.10951887E-05
 -6.79903754E-05  2.83793747E-05  2.58585318E-07  2.83860282E-07 -1.25435753E-05