8030                                                                    
Freq      RMP2-FC                                                     6-31G(d)            
Number of atoms                            I                9
Info1-9                                    I   N=           9
          21          19        1002           0           0         100
           6           2           1
Charge                                     I                0
Multiplicity                               I                1
Number of electrons                        I               44
Number of alpha electrons                  I               22
Number of beta electrons                   I               22
Number of basis functions                  I               87
Number of independent functions            I               87
Number of point charges in /Mol/           I                0
Number of translation vectors              I                0
Atomic numbers                             I   N=           9
          16           6           6           6           6           1
           1           1           1
Nuclear charges                            R   N=           9
  1.60000000E+01  6.00000000E+00  6.00000000E+00  6.00000000E+00  6.00000000E+00
  1.00000000E+00  1.00000000E+00  1.00000000E+00  1.00000000E+00
Current cartesian coordinates              R   N=          27
  2.25163387E+00 -2.22292472E-07 -9.19171279E-05 -2.40753242E+00  1.34173387E+00
  1.43134401E-04 -2.40753290E+00 -1.34173347E+00  5.21992915E-05 -3.64385928E-03
  2.33434788E+00  4.01151665E-05 -3.64448449E-03 -2.33434788E+00 -3.85450212E-05
 -4.09879362E+00  2.50058925E+00  2.48673175E-04 -4.09879463E+00 -2.50058806E+00
  8.35893118E-05  5.52784582E-01  4.30255203E+00  5.03196007E-05  5.52783725E-01
 -4.30255208E+00 -9.33310659E-05
Force Field                                I                0
Int Atom Types                             I   N=           9
           0           0           0           0           0           0
           0           0           0
MM charges                                 R   N=           9
  0.00000000E+00  0.00000000E+00  0.00000000E+00  0.00000000E+00  0.00000000E+00
  0.00000000E+00  0.00000000E+00  0.00000000E+00  0.00000000E+00
Integer atomic weights                     I   N=           9
          32          12          12          12          12           1
           1           1           1
Real atomic weights                        R   N=           9
  3.19720718E+01  1.20000000E+01  1.20000000E+01  1.20000000E+01  1.20000000E+01
  1.00782504E+00  1.00782504E+00  1.00782504E+00  1.00782504E+00
Atom fragment info                         I   N=           9
           0           0           0           0           0           0
           0           0           0
Atom residue num                           I   N=           9
           0           0           0           0           0           0
           0           0           0
Nuclear spins                              I   N=           9
           0           0           0           0           0           1
           1           1           1
Nuclear ZEff                               R   N=           9
 -1.36000000E+01 -3.60000000E+00 -3.60000000E+00 -3.60000000E+00 -3.60000000E+00
 -1.00000000E+00 -1.00000000E+00 -1.00000000E+00 -1.00000000E+00
Nuclear QMom                               R   N=           9
  0.00000000E+00  0.00000000E+00  0.00000000E+00  0.00000000E+00  0.00000000E+00
  0.00000000E+00  0.00000000E+00  0.00000000E+00  0.00000000E+00
Nuclear GFac                               R   N=           9
  0.00000000E+00  0.00000000E+00  0.00000000E+00  0.00000000E+00  0.00000000E+00
  2.79284600E+00  2.79284600E+00  2.79284600E+00  2.79284600E+00
MicOpt                                     I   N=           9
          -1          -1          -1          -1          -1          -1
          -1          -1          -1
Number of contracted shells                I               29
Number of primitive shells                 I               77
Pure/Cartesian d shells                    I                1
Pure/Cartesian f shells                    I                0
Highest angular momentum                   I                2
Largest degree of contraction              I                6
Shell types                                I   N=          29
           0          -1          -1          -1           2           0
          -1          -1           2           0          -1          -1
           2           0          -1          -1           2           0
          -1          -1           2           0           0           0
           0           0           0           0           0
Number of primitives per shell             I   N=          29
           6           6           3           1           1           6
           3           1           1           6           3           1
           1           6           3           1           1           6
           3           1           1           3           1           3
           1           3           1           3           1
Shell to atom map                          I   N=          29
           1           1           1           1           1           2
           2           2           2           3           3           3
           3           4           4           4           4           5
           5           5           5           6           6           7
           7           8           8           9           9
Primitive exponents                        R   N=          77
  2.19171000E+04  3.30149000E+03  7.54146000E+02  2.12711000E+02  6.79896000E+01
  2.30515000E+01  4.23735000E+02  1.00710000E+02  3.21599000E+01  1.18079000E+01
  4.63110000E+00  1.87025000E+00  2.61584000E+00  9.22167000E-01  3.41287000E-01
  1.17167000E-01  6.50000000E-01  3.04752488E+03  4.57369518E+02  1.03948685E+02
  2.92101553E+01  9.28666296E+00  3.16392696E+00  7.86827235E+00  1.88128854E+00
  5.44249258E-01  1.68714478E-01  8.00000000E-01  3.04752488E+03  4.57369518E+02
  1.03948685E+02  2.92101553E+01  9.28666296E+00  3.16392696E+00  7.86827235E+00
  1.88128854E+00  5.44249258E-01  1.68714478E-01  8.00000000E-01  3.04752488E+03
  4.57369518E+02  1.03948685E+02  2.92101553E+01  9.28666296E+00  3.16392696E+00
  7.86827235E+00  1.88128854E+00  5.44249258E-01  1.68714478E-01  8.00000000E-01
  3.04752488E+03  4.57369518E+02  1.03948685E+02  2.92101553E+01  9.28666296E+00
  3.16392696E+00  7.86827235E+00  1.88128854E+00  5.44249258E-01  1.68714478E-01
  8.00000000E-01  1.87311370E+01  2.82539436E+00  6.40121692E-01  1.61277759E-01
  1.87311370E+01  2.82539436E+00  6.40121692E-01  1.61277759E-01  1.87311370E+01
  2.82539436E+00  6.40121692E-01  1.61277759E-01  1.87311370E+01  2.82539436E+00
  6.40121692E-01  1.61277759E-01
Contraction coefficients                   R   N=          77
  1.86924085E-03  1.42303065E-02  6.96962317E-02  2.38487108E-01  4.83307220E-01
  3.38074154E-01 -2.37677050E-03 -3.16930067E-02 -1.13317024E-01  5.60900118E-02
  5.92255124E-01  4.55006095E-01 -2.50373114E-01  6.69567631E-02  1.05450627E+00
  1.00000000E+00  1.00000000E+00  1.83473713E-03  1.40373228E-02  6.88426223E-02
  2.32184443E-01  4.67941348E-01  3.62311985E-01 -1.19332420E-01 -1.60854152E-01
  1.14345644E+00  1.00000000E+00  1.00000000E+00  1.83473713E-03  1.40373228E-02
  6.88426223E-02  2.32184443E-01  4.67941348E-01  3.62311985E-01 -1.19332420E-01
 -1.60854152E-01  1.14345644E+00  1.00000000E+00  1.00000000E+00  1.83473713E-03
  1.40373228E-02  6.88426223E-02  2.32184443E-01  4.67941348E-01  3.62311985E-01
 -1.19332420E-01 -1.60854152E-01  1.14345644E+00  1.00000000E+00  1.00000000E+00
  1.83473713E-03  1.40373228E-02  6.88426223E-02  2.32184443E-01  4.67941348E-01
  3.62311985E-01 -1.19332420E-01 -1.60854152E-01  1.14345644E+00  1.00000000E+00
  1.00000000E+00  3.34946043E-02  2.34726953E-01  8.13757326E-01  1.00000000E+00
  3.34946043E-02  2.34726953E-01  8.13757326E-01  1.00000000E+00  3.34946043E-02
  2.34726953E-01  8.13757326E-01  1.00000000E+00  3.34946043E-02  2.34726953E-01
  8.13757326E-01  1.00000000E+00
P(S=P) Contraction coefficients            R   N=          77
  0.00000000E+00  0.00000000E+00  0.00000000E+00  0.00000000E+00  0.00000000E+00
  0.00000000E+00  4.06100998E-03  3.06812999E-02  1.30451999E-01  3.27204999E-01
  4.52850998E-01  2.56041999E-01 -1.45104895E-02  3.10262776E-01  7.54482456E-01
  1.00000000E+00  0.00000000E+00  0.00000000E+00  0.00000000E+00  0.00000000E+00
  0.00000000E+00  0.00000000E+00  0.00000000E+00  6.89990666E-02  3.16423961E-01
  7.44308291E-01  1.00000000E+00  0.00000000E+00  0.00000000E+00  0.00000000E+00
  0.00000000E+00  0.00000000E+00  0.00000000E+00  0.00000000E+00  6.89990666E-02
  3.16423961E-01  7.44308291E-01  1.00000000E+00  0.00000000E+00  0.00000000E+00
  0.00000000E+00  0.00000000E+00  0.00000000E+00  0.00000000E+00  0.00000000E+00
  6.89990666E-02  3.16423961E-01  7.44308291E-01  1.00000000E+00  0.00000000E+00
  0.00000000E+00  0.00000000E+00  0.00000000E+00  0.00000000E+00  0.00000000E+00
  0.00000000E+00  6.89990666E-02  3.16423961E-01  7.44308291E-01  1.00000000E+00
  0.00000000E+00  0.00000000E+00  0.00000000E+00  0.00000000E+00  0.00000000E+00
  0.00000000E+00  0.00000000E+00  0.00000000E+00  0.00000000E+00  0.00000000E+00
  0.00000000E+00  0.00000000E+00  0.00000000E+00  0.00000000E+00  0.00000000E+00
  0.00000000E+00  0.00000000E+00
Coordinates of each shell                  R   N=          87
  2.25163387E+00 -2.22292472E-07 -9.19171279E-05  2.25163387E+00 -2.22292472E-07
 -9.19171279E-05  2.25163387E+00 -2.22292472E-07 -9.19171279E-05  2.25163387E+00
 -2.22292472E-07 -9.19171279E-05  2.25163387E+00 -2.22292472E-07 -9.19171279E-05
 -2.40753242E+00  1.34173387E+00  1.43134401E-04 -2.40753242E+00  1.34173387E+00
  1.43134401E-04 -2.40753242E+00  1.34173387E+00  1.43134401E-04 -2.40753242E+00
  1.34173387E+00  1.43134401E-04 -2.40753290E+00 -1.34173347E+00  5.21992915E-05
 -2.40753290E+00 -1.34173347E+00  5.21992915E-05 -2.40753290E+00 -1.34173347E+00
  5.21992915E-05 -2.40753290E+00 -1.34173347E+00  5.21992915E-05 -3.64385928E-03
  2.33434788E+00  4.01151665E-05 -3.64385928E-03  2.33434788E+00  4.01151665E-05
 -3.64385928E-03  2.33434788E+00  4.01151665E-05 -3.64385928E-03  2.33434788E+00
  4.01151665E-05 -3.64448449E-03 -2.33434788E+00 -3.85450212E-05 -3.64448449E-03
 -2.33434788E+00 -3.85450212E-05 -3.64448449E-03 -2.33434788E+00 -3.85450212E-05
 -3.64448449E-03 -2.33434788E+00 -3.85450212E-05 -4.09879362E+00  2.50058925E+00
  2.48673175E-04 -4.09879362E+00  2.50058925E+00  2.48673175E-04 -4.09879463E+00
 -2.50058806E+00  8.35893118E-05 -4.09879463E+00 -2.50058806E+00  8.35893118E-05
  5.52784582E-01  4.30255203E+00  5.03196007E-05  5.52784582E-01  4.30255203E+00
  5.03196007E-05  5.52783725E-01 -4.30255208E+00 -9.33310659E-05  5.52783725E-01
 -4.30255208E+00 -9.33310659E-05
Constraint Structure                       R   N=          27
  2.25163387E+00 -2.22292472E-07 -9.19171279E-05 -2.40753242E+00  1.34173387E+00
  1.43134401E-04 -2.40753290E+00 -1.34173347E+00  5.21992915E-05 -3.64385928E-03
  2.33434788E+00  4.01151665E-05 -3.64448449E-03 -2.33434788E+00 -3.85450212E-05
 -4.09879362E+00  2.50058925E+00  2.48673175E-04 -4.09879463E+00 -2.50058806E+00
  8.35893118E-05  5.52784582E-01  4.30255203E+00  5.03196007E-05  5.52783725E-01
 -4.30255208E+00 -9.33310659E-05
Num ILSW                                   I              100
ILSW                                       I   N=         100
           0           1           0           0           2           0
           0           0           0           0           0          -1
           0           0           0           0           0           0
           0           0           0           0           1           0
           1           0           0           0           0           0
           0           0      100000           0          -1           0
           0           0           0           0           0           0
           0           0           0           1           1           0
           0           0           1           0           0           0
           0           0           4          40           0           0
           0           0           0           0           0           0
           0           0           0           0           0           0
           0           0           0           0           0           0
           0           0           0           0           0           0
           0           0           0           0           0           0
           0           0           0           0           0           0
           0           0           0           0
Num RLSW                                   I               40
RLSW                                       R   N=          40
  1.00000000E+00  1.00000000E+00  1.00000000E+00  1.00000000E+00  1.00000000E+00
  0.00000000E+00  0.00000000E+00  1.00000000E+00  0.00000000E+00  0.00000000E+00
  0.00000000E+00  0.00000000E+00  1.00000000E+00  0.00000000E+00  0.00000000E+00
  0.00000000E+00  0.00000000E+00  1.00000000E+00  0.00000000E+00  0.00000000E+00
  0.00000000E+00  0.00000000E+00  1.00000000E+00  0.00000000E+00  0.00000000E+00
  0.00000000E+00  0.00000000E+00  1.00000000E+00  0.00000000E+00  0.00000000E+00
  0.00000000E+00  0.00000000E+00  0.00000000E+00  0.00000000E+00  0.00000000E+00
  0.00000000E+00  0.00000000E+00  0.00000000E+00  1.00000000E+00  1.00000000E+00
MxBond                                     I                3
NBond                                      I   N=           9
           2           3           3           3           3           1
           1           1           1
IBond                                      I   N=          27
           4           5           0           3           4           6
           2           5           7           1           2           8
           1           3           9           2           0           0
           3           0           0           4           0           0
           5           0           0
RBond                                      R   N=          27
  1.00000000E+00  1.00000000E+00  0.00000000E+00  1.50000000E+00  1.50000000E+00
  1.00000000E+00  1.50000000E+00  1.50000000E+00  1.00000000E+00  1.00000000E+00
  1.50000000E+00  1.00000000E+00  1.00000000E+00  1.50000000E+00  1.00000000E+00
  1.00000000E+00  0.00000000E+00  0.00000000E+00  1.00000000E+00  0.00000000E+00
  0.00000000E+00  1.00000000E+00  0.00000000E+00  0.00000000E+00  1.00000000E+00
  0.00000000E+00  0.00000000E+00
Virial Ratio                               R      2.000855055199757E+00
SCF Energy                                 R     -5.512880803237175E+02
MP2 Energy                                 R     -5.519249816804735E+02
Total Energy                               R     -5.519249816804735E+02
Post-SCF wavefunction norm                 R      1.580550786339637E+00
RMS Force                                  R      1.163161742210199E-06
RMS Density                                R      9.294697541656965E-10
External E-field                           R   N=          35
  0.00000000E+00  0.00000000E+00  0.00000000E+00  0.00000000E+00  0.00000000E+00
  0.00000000E+00  0.00000000E+00  0.00000000E+00  0.00000000E+00  0.00000000E+00
  0.00000000E+00  0.00000000E+00  0.00000000E+00  0.00000000E+00  0.00000000E+00
  0.00000000E+00  0.00000000E+00  0.00000000E+00  0.00000000E+00  0.00000000E+00
  0.00000000E+00  0.00000000E+00  0.00000000E+00  0.00000000E+00  0.00000000E+00
  0.00000000E+00  0.00000000E+00  0.00000000E+00  0.00000000E+00  0.00000000E+00
  0.00000000E+00  0.00000000E+00  0.00000000E+00  0.00000000E+00  0.00000000E+00
IOpCl                                      I                0
IROHF                                      I                0
Alpha Orbital Energies                     R   N=          87
 -9.19696560E+01 -1.12613058E+01 -1.12612843E+01 -1.12388947E+01 -1.12378860E+01
 -8.98017187E+00 -6.66273644E+00 -6.66178696E+00 -6.66024956E+00 -1.16677959E+00
 -9.82700126E-01 -9.76830174E-01 -7.61805432E-01 -7.46787458E-01 -6.91886078E-01
 -5.70012163E-01 -5.47068380E-01 -5.24799358E-01 -5.16541616E-01 -4.71926516E-01
 -3.41767168E-01 -3.20216637E-01  1.31027225E-01  1.90087632E-01  2.34172835E-01
  2.43211513E-01  2.67394408E-01  3.02688016E-01  3.19559720E-01  3.23493331E-01
  4.05402477E-01  4.62213811E-01  4.69709551E-01  5.44150864E-01  5.85856660E-01
  6.35635275E-01  6.37746888E-01  6.98702836E-01  7.37329048E-01  7.80845761E-01
  8.13451313E-01  8.30819426E-01  8.36815184E-01  8.94389839E-01  9.07694974E-01
  1.02577233E+00  1.04329221E+00  1.05307165E+00  1.05683701E+00  1.08884983E+00
  1.10806324E+00  1.12171704E+00  1.17060748E+00  1.17600237E+00  1.25036009E+00
  1.29759876E+00  1.31468077E+00  1.33707488E+00  1.36077614E+00  1.43500978E+00
  1.57418628E+00  1.62701914E+00  1.69651313E+00  1.71720390E+00  1.78134662E+00
  2.03228653E+00  2.12420950E+00  2.16202893E+00  2.20058431E+00  2.25414229E+00
  2.34953069E+00  2.49756997E+00  2.55614725E+00  2.56499768E+00  2.58817557E+00
  2.58901529E+00  2.78904834E+00  2.82120510E+00  2.94071026E+00  2.98834462E+00
  3.24497758E+00  3.35465811E+00  4.36606468E+00  4.52596691E+00  4.53617347E+00
  4.73657810E+00  4.85998683E+00
Alpha MO coefficients                      R   N=        7569
  9.96255580E-01  1.42605639E-02 -8.71919501E-05  9.96629048E-12  3.58396450E-09
 -1.99755505E-02  1.53129395E-04 -1.46446496E-11 -6.27959388E-09  2.40410698E-03
 -7.90614063E-05  8.82317380E-12  3.27315050E-09  6.89757873E-03  6.92431263E-03
  6.91867788E-03 -1.52646617E-12  9.99267654E-10 -1.82538850E-10  6.22085645E-06
  5.26849878E-06 -2.53972793E-05 -2.63002794E-05  1.39178960E-09 -1.89011141E-04
 -1.84181070E-04  1.12882527E-04  6.93494038E-09  9.27661219E-07  2.51124862E-05
  5.23077046E-06 -1.43327863E-05 -4.29907994E-10  9.86608619E-10  6.22085500E-06
  5.26852589E-06 -2.53972672E-05  2.63002771E-05  6.53026011E-10 -1.89011079E-04
 -1.84181182E-04 -1.12882472E-04  8.07207632E-09  9.27636112E-07  2.51124635E-05
  5.23076725E-06  1.43327665E-05  8.32495043E-10 -2.16661472E-10  1.28242092E-05
  9.85579507E-05  4.47945859E-05 -3.86676887E-05 -2.46575485E-09  9.14517451E-05
 -5.01340811E-05 -2.49863438E-04 -9.10089121E-11 -3.60702499E-06 -1.24010364E-05
 -1.40799802E-05  5.93467290E-05 -9.21617944E-11 -2.68972222E-09  1.28242034E-05
  9.85579254E-05  4.47945999E-05  3.86676986E-05 -1.19255167E-09  9.14518178E-05
 -5.01340410E-05  2.49863400E-04  3.83657643E-09 -3.60703702E-06 -1.24009872E-05
 -1.40799865E-05 -5.93467147E-05 -8.25654727E-10  2.10517249E-09 -2.48608674E-05
 -6.46494140E-05 -2.48608592E-05 -6.46494816E-05  6.76374774E-06  2.38847971E-05
  6.76373229E-06  2.38847576E-05 -3.09152194E-09 -6.15494760E-09  7.25396353E-09
  8.57490541E-06  2.66166284E-10  1.10547500E-07 -1.13666720E-07 -2.71589585E-04
 -5.17439644E-09  1.59774822E-06 -7.93690907E-07 -1.30365664E-03 -2.50377458E-08
 -7.46911309E-08 -9.08598928E-08 -6.80655977E-08 -2.08852685E-04 -4.00834707E-09
  8.69769509E-09 -1.99370173E-02 -4.94076727E-04  1.32621525E-04  6.97962295E-06
 -8.72026081E-09 -2.96923685E-03 -1.27124512E-03 -9.47602635E-05  6.57106675E-08
  3.15645649E-04  3.03321604E-04  9.54049070E-05 -3.72225701E-05 -1.23804678E-08
  5.81143086E-09  1.99475961E-02  4.94235626E-04 -1.32669097E-04  6.94865694E-06
  2.02975445E-09  2.97053122E-03  1.27199897E-03 -9.47638050E-05 -3.75640272E-08
 -3.15761085E-04 -3.03388679E-04 -9.54636067E-05 -3.71848884E-05  8.10261529E-09
 -2.77428499E-09 -7.03584317E-01 -1.93720137E-02 -3.33009029E-04  3.62924258E-04
  1.44219142E-08  8.12589553E-03 -1.74638014E-04 -1.17066485E-03  2.00489218E-09
  1.19286932E-03  1.30715640E-03  1.59656362E-03 -1.69872570E-04  1.85046800E-08
  1.48685873E-09  7.03948466E-01  1.93821287E-02  3.33159808E-04  3.63133923E-04
 -1.35265396E-08 -8.13138808E-03  1.74513303E-04 -1.17170409E-03 -1.04537113E-08
 -1.19344246E-03 -1.30769700E-03 -1.59732999E-03 -1.69988238E-04 -1.91779651E-08
  1.21054986E-08  9.30475505E-06 -4.46333039E-05 -9.31194827E-06  4.48017212E-05
  1.54285669E-04 -8.97554805E-04 -1.54375195E-04  8.98079727E-04 -1.19571398E-05
 -2.37359468E-05  2.80006575E-05 -2.21836582E-09 -1.13616469E-09  4.27564771E-04
 -4.39040431E-04  7.02860575E-08  1.79789373E-08  6.17661463E-03 -3.06756772E-03
  3.37691801E-07  1.25850889E-07 -2.88811752E-04 -3.51501648E-04 -2.63084827E-04
  5.40650093E-08  1.18043594E-09 -5.19179191E-10  2.04544305E-02  3.07348956E-04
 -9.19018340E-05  5.99072670E-05  6.64834566E-09  2.50265335E-03  1.45713515E-03
  6.58306936E-06 -6.63245465E-08 -2.23059915E-04 -1.29784517E-04 -1.13486573E-04
 -7.27792901E-05  7.92421122E-09  3.29445444E-09  2.04441119E-02  3.07093343E-04
 -9.18332967E-05 -5.99109081E-05  5.57938710E-10  2.50111621E-03  1.45647695E-03
 -6.53443198E-06 -5.11396992E-08 -2.22896610E-04 -1.29627640E-04 -1.13437187E-04
  7.27985328E-05  2.30358303E-09 -2.40398224E-09  7.04011527E-01  1.95558269E-02
  2.91550865E-04 -4.05442248E-04 -1.50358847E-08 -1.06184204E-02 -2.40520951E-04
  2.00892349E-03  3.22284177E-08 -1.10807981E-03 -1.04535593E-03 -1.48174515E-03
  2.23355883E-04 -1.53074705E-08 -1.59144636E-09  7.03647409E-01  1.95458013E-02
  2.91378537E-04  4.05254378E-04 -9.69117963E-09 -1.06142143E-02 -2.40611832E-04
 -2.00831734E-03 -9.94804417E-09 -1.10746250E-03 -1.04467941E-03 -1.48091886E-03
 -2.23268027E-04 -1.95150297E-08  1.66099210E-08 -1.39148547E-05  3.25355808E-04
 -1.39100355E-05  3.25332659E-04 -1.73078550E-04  1.01483884E-03 -1.72998691E-04
  1.01437438E-03 -9.67782565E-06 -3.26475709E-05 -2.50141894E-06 -1.35006575E-10
  8.16001047E-11 -5.31761446E-04  7.81903515E-05  1.12820507E-09 -3.08186395E-09
  9.34500528E-04 -5.31842116E-04 -7.78955129E-10  2.15399765E-08  1.85881138E-04
  7.52395967E-05 -6.75799635E-05 -9.65870551E-11 -1.18737764E-08  4.46588866E-09
  7.03576318E-01  1.94801891E-02  1.64505500E-04 -9.39943480E-06 -1.73080444E-08
 -6.30795825E-03 -7.75542251E-04 -5.48750880E-04  5.25141710E-08 -1.32679379E-03
 -1.56421055E-03 -1.74032974E-03  1.43426467E-05 -2.34875995E-08  8.65935454E-10
  7.03583751E-01  1.94803961E-02  1.64508225E-04  9.40203151E-06  4.26805888E-09
 -6.30810074E-03 -7.75564000E-04  5.48728294E-04  9.78043642E-09 -1.32680356E-03
 -1.56421880E-03 -1.74034621E-03 -1.43428607E-05 -1.51689961E-08  2.01243019E-09
 -2.08067544E-02 -6.57976170E-04  1.21742111E-04  4.47397684E-05 -4.16404679E-09
  2.23888980E-03 -1.17434562E-03 -2.40401285E-04  3.78668272E-08 -1.74742226E-04
 -7.31817876E-05  4.49380266E-05  8.46763272E-07  1.50623185E-08 -4.89759909E-10
 -2.08069678E-02 -6.57982392E-04  1.21743136E-04 -4.47409253E-05 -5.63736672E-09
  2.23893421E-03 -1.17436193E-03  2.40414454E-04  5.72987242E-08 -1.74745520E-04
 -7.31843167E-05  4.49380418E-05 -8.45721274E-07  5.41886302E-09 -3.02349210E-10
 -1.88651483E-04  1.19976398E-03 -1.88653039E-04  1.19977389E-03 -3.67933352E-05
 -4.02372788E-05 -3.67931761E-05 -4.02361635E-05 -5.37428147E-11 -1.81905862E-10
 -7.69098363E-12  2.50203945E-05  1.18653828E-09 -2.95207303E-09  3.85037458E-10
 -2.11316551E-04 -8.03757234E-09  4.99437250E-09 -2.85124769E-09  1.57673857E-04
  1.24781308E-08  1.04476838E-09  4.05923425E-10 -3.57391399E-10  1.23342417E-05
 -3.44489276E-09 -4.68504321E-10  7.03930988E-01  1.96090074E-02  2.58869659E-04
 -2.46981985E-04 -3.12985374E-08 -1.34254100E-02 -2.07382773E-03  2.09730814E-03
  1.84943611E-07 -9.37141447E-04 -7.66828870E-04 -1.56191420E-03  2.09939856E-05
 -3.11141433E-08  2.63178573E-08 -7.03923559E-01 -1.96088017E-02 -2.58867996E-04
 -2.46981904E-04 -1.07222149E-08  1.34253432E-02  2.07382034E-03  2.09731360E-03
  1.80936117E-08  9.37127313E-04  7.66812431E-04  1.56189580E-03  2.09937178E-05
  2.72341043E-08 -2.79884080E-08 -2.03250731E-02 -5.91044238E-04  9.61496399E-05
  1.07080212E-04 -6.29837778E-09  4.19590867E-03 -1.53867903E-03 -1.20836303E-03
  5.87627729E-08 -3.12341990E-04 -2.36884046E-04  1.95308483E-06 -9.22250775E-05
  1.74655249E-08 -5.29253279E-09  2.03248525E-02  5.91037227E-04 -9.61483670E-05
  1.07079793E-04  1.39288691E-09 -4.19588509E-03  1.53866643E-03 -1.20836041E-03
 -6.52871633E-08  3.12340109E-04  2.36883385E-04 -1.95259476E-06 -9.22251827E-05
 -1.17617187E-08  1.27099492E-08 -1.41065974E-04  9.41592143E-04  1.41064045E-04
 -9.41579396E-04  1.32006186E-05  9.57788551E-05 -1.32009917E-05 -9.57791327E-05
 -2.81778652E-01  1.03026574E+00 -4.91822933E-03  7.22337938E-10  2.01653627E-07
  2.41375220E-02 -2.07188628E-03  3.91310925E-10  8.49804626E-08 -5.43339874E-03
  6.60832095E-04 -7.19975621E-11 -2.70984016E-08 -8.56572142E-04 -8.43585345E-04
 -1.53142971E-03 -6.18188335E-11 -3.20982402E-08  1.28189272E-08 -3.51289912E-05
 -2.84294559E-04  1.35007915E-05  2.07633223E-04  1.27772976E-09  8.51174072E-04
  1.38283084E-03 -9.82310125E-04 -6.73853226E-08  9.43540747E-05 -4.70318033E-05
 -9.09019060E-05 -6.24296967E-06 -7.55147398E-09  1.05950606E-09 -3.51289709E-05
 -2.84294459E-04  1.35006817E-05 -2.07633213E-04 -2.29575710E-09  8.51172445E-04
  1.38283071E-03  9.82308919E-04 -4.50180435E-08  9.43540696E-05 -4.70317751E-05
 -9.09018776E-05  6.24294205E-06 -9.85167813E-09  6.54676342E-10 -1.79285555E-04
  4.41981318E-04 -2.99153268E-05 -1.93156479E-05 -6.88166102E-10 -6.55045962E-04
  1.63921233E-04  2.00205489E-03  2.00712490E-08 -3.07880819E-04 -3.48121327E-04
  1.02829212E-04  2.23980959E-04  2.50926790E-08 -1.66705658E-08 -1.79285511E-04
  4.41981355E-04 -2.99153244E-05  1.93156502E-05  3.11325123E-09 -6.55045741E-04
  1.63920808E-04 -2.00205415E-03 -3.14832185E-08 -3.07880918E-04 -3.48121247E-04
  1.02829206E-04 -2.23981011E-04  1.36392538E-08  2.15037271E-09  1.32516243E-04
  7.07467340E-04  1.32516205E-04  7.07467298E-04 -1.45858439E-04 -6.94449277E-04
 -1.45858384E-04 -6.94448877E-04  2.09497030E-10 -7.58460204E-10  2.91277232E-08
  9.92822157E-01  1.44826407E-05  5.62446076E-10  7.05458444E-10  2.45014748E-02
  3.60587801E-07  9.96078821E-10 -6.19401291E-10 -5.11779275E-03 -8.42874393E-08
 -2.74006460E-10  3.71339633E-10 -1.49752211E-10 -1.69788975E-03 -2.30721681E-08
  6.95735039E-08 -1.26146681E-04 -7.55164197E-04 -2.68698274E-05  7.97732020E-05
  1.96954293E-09  9.48413721E-03  4.78797540E-03 -5.19857101E-03 -3.92443929E-07
  4.92174564E-05  1.38263800E-04 -2.31436611E-04  5.39952701E-05 -2.14630345E-08
  1.62906172E-08  1.26146700E-04  7.55164306E-04  2.68699882E-05  7.97730352E-05
 -5.22717662E-10 -9.48413722E-03 -4.78797741E-03 -5.19856895E-03 -3.68546112E-09
 -4.92174162E-05 -1.38263851E-04  2.31436683E-04  5.39951956E-05  4.74675367E-09
 -2.05693963E-08 -1.48283335E-04  6.91516172E-04 -7.07313250E-05  1.02843237E-04
  5.01443407E-09 -4.83358097E-03  3.77433664E-04  4.59171187E-03  4.58178128E-08
 -6.15128968E-04 -1.91249713E-04  1.93137471E-04  2.95726440E-04  4.39825083E-08
 -1.25506917E-08  1.48283271E-04 -6.91516075E-04  7.07312468E-05  1.02843308E-04
 -1.29633348E-09  4.83358078E-03 -3.77433201E-04  4.59170961E-03  7.35336890E-08
  6.15129175E-04  1.91249587E-04 -1.93137383E-04  2.95726415E-04 -3.24060228E-08
 -1.22634913E-08  2.70125142E-04  2.01880118E-03 -2.70125052E-04 -2.01880135E-03
 -2.48485850E-04 -5.73191666E-04  2.48485692E-04  5.73190406E-04 -1.69463016E-03
  6.46896562E-03  9.93103332E-01 -2.85830026E-08 -4.08906521E-05 -4.03475834E-03
  2.35287019E-02 -6.01237716E-10 -9.68736663E-07 -5.26270615E-03 -2.42372948E-03
 -2.47658852E-10  1.00347918E-07 -5.04090392E-04  8.85323583E-04  1.65086424E-03
  9.73418519E-11  1.02172476E-07 -1.65546467E-08  4.50018938E-05  3.45749618E-04
 -2.47483459E-04 -2.34030855E-04  8.14188189E-09 -2.48704961E-03 -2.43580221E-03
  1.31563710E-03  1.24018305E-07 -2.40338603E-04  9.24157141E-05  2.94532628E-05
  8.25778913E-05  1.22339586E-08 -4.14322582E-09  4.50019375E-05  3.45749934E-04
 -2.47483228E-04  2.34030907E-04  1.21481686E-08 -2.48705236E-03 -2.43580488E-03
 -1.31563806E-03  7.28608262E-08 -2.40338658E-04  9.24156376E-05  2.94533729E-05
 -8.25778393E-05  1.29446071E-08  2.20784897E-09  8.04115986E-05 -8.21582093E-04
  1.27278453E-04  4.91515271E-05 -2.02268492E-09  4.73371701E-03 -1.58614345E-04
 -5.22746074E-03 -6.80727233E-08  9.29183307E-06  4.33076611E-04 -3.07739482E-04
 -1.34759630E-04 -2.10116066E-08  1.70765203E-08  8.04115538E-05 -8.21582389E-04
  1.27278435E-04 -4.91515672E-05 -8.19175765E-09  4.73371881E-03 -1.58613937E-04
  5.22746189E-03  7.64513042E-08  9.29210444E-06  4.33076634E-04 -3.07739532E-04
  1.34759887E-04 -8.48359193E-09  5.28222123E-09 -1.38509548E-04 -9.34792040E-04
 -1.38509649E-04 -9.34793272E-04  5.58590170E-05  2.25196435E-03  5.58590651E-05
  2.25196450E-03 -2.83265976E-10  1.03688410E-09  4.09177735E-05 -1.44954427E-05
  9.93760239E-01 -4.87463872E-10  8.54082271E-07 -3.04253465E-07  2.07460073E-02
  1.10129449E-12 -2.09808028E-07  7.33853739E-08 -5.10192958E-03 -2.88709651E-08
  3.00345537E-10  2.88288888E-08  3.11523793E-09 -4.04814331E-04  8.64744896E-11
 -9.11122177E-10 -3.21093487E-09 -2.64107796E-10  2.91853226E-10 -2.77383624E-05
  4.00542367E-08  2.87960345E-08  2.09411826E-09  1.58776329E-04  3.27747349E-09
 -3.38689538E-09 -4.50437616E-09 -2.11750797E-09  4.16551158E-05 -2.03216013E-05
  9.52615341E-10  3.44123118E-09 -2.27164585E-09  5.00749249E-11 -2.77383685E-05
 -4.27421519E-08 -1.61759003E-08  2.87022306E-09  1.58776266E-04  2.50993126E-09
  3.55294203E-09 -1.42022001E-09 -5.81059902E-10  4.16551091E-05  2.03215962E-05
  2.68393889E-10  3.10982789E-09 -6.75664471E-09  2.49431376E-09 -1.51885639E-04
 -3.26694140E-08  2.88491968E-08  8.28037774E-09  2.98616463E-04 -1.41302011E-08
 -6.64188328E-09  2.22227362E-08  1.32655955E-08 -1.92552201E-04  2.52268439E-04
 -2.80960141E-10 -3.20692718E-09 -5.58949168E-09  2.33904927E-09 -1.51885620E-04
  3.37184813E-08 -5.54398426E-09  9.44776575E-09  2.98616500E-04 -1.33136200E-08