
    -----------------------------------------------------------------------
          Psi4: An Open-Source Ab Initio Electronic Structure Package
                               Psi4 1.3.2 release

                         Git: Rev {HEAD} ecbda83 


    R. M. Parrish, L. A. Burns, D. G. A. Smith, A. C. Simmonett,
    A. E. DePrince III, E. G. Hohenstein, U. Bozkaya, A. Yu. Sokolov,
    R. Di Remigio, R. M. Richard, J. F. Gonthier, A. M. James,
    H. R. McAlexander, A. Kumar, M. Saitow, X. Wang, B. P. Pritchard,
    P. Verma, H. F. Schaefer III, K. Patkowski, R. A. King, E. F. Valeev,
    F. A. Evangelista, J. M. Turney, T. D. Crawford, and C. D. Sherrill,
    J. Chem. Theory Comput. 13(7) pp 3185--3197 (2017).
    (doi: 10.1021/acs.jctc.7b00174)


                         Additional Contributions by
    P. Kraus, H. Kruse, M. H. Lechner, M. C. Schieber, R. A. Shaw,
    A. Alenaizan, R. Galvelis, Z. L. Glick, S. Lehtola, and J. P. Misiewicz

    -----------------------------------------------------------------------


    Psi4 started on: Tuesday, 03 November 2020 06:03PM

    Process ID: 19715
    Host:       node142.bme.utexas.edu
    PSIDATADIR: /home/xy3866/psi4conda/share/psi4
    Memory:     500.0 MiB
    Threads:    8
    
  ==> Input File <==

--------------------------------------------------------------------------
#psi4
#
memory 32 gb

molecule  {
0 1
  O       -1.3945310     1.8555980     0.0000210
  O        2.9082060     0.2751580    -0.0000600
  N       -1.0895640    -0.4406340     0.0001970
  N        0.7349370     0.9985730     0.0002800
  C       -0.6489740     0.8800530    -0.0003070
  C       -0.2041810    -1.5011250     0.0000420
  C       -2.5282030    -0.6963170    -0.0000730
  C        1.1376906    -1.3317007     0.0000721
  C        1.7104040    -0.0052910    -0.0002190
  H       -0.6847935    -2.4751890     0.0001760
  H       -2.8113470    -1.2573270     0.8936330
  H       -2.8107340    -1.2584070    -0.8933430
  H       -3.0286960     0.2691590    -0.0008180
  H        1.0742980     1.9581480     0.0003170
  H        1.8167570    -2.1872720    -0.0000870
units angstrom
no_reorient  #important for SAPT in psi4, default
symmetry c1  #important for SAPT in psi4, default
}

set PROPERTIES_ORIGIN ["COM"]
properties('MP2/aug-cc-pvtz', properties = ['dipole'])
--------------------------------------------------------------------------

  Memory set to  29.802 GiB by Python driver.
    SCF Algorithm Type (re)set to DF.

*** tstart() called on node142.bme.utexas.edu
*** at Tue Nov  3 18:03:52 2020

   => Loading Basis Set <=

    Name: AUG-CC-PVTZ
    Role: ORBITAL
    Keyword: BASIS
    atoms 1-2   entry O          line   327 file /home/xy3866/psi4conda/share/psi4/basis/aug-cc-pvtz.gbs 
    atoms 3-4   entry N          line   281 file /home/xy3866/psi4conda/share/psi4/basis/aug-cc-pvtz.gbs 
    atoms 5-9   entry C          line   235 file /home/xy3866/psi4conda/share/psi4/basis/aug-cc-pvtz.gbs 
    atoms 10-15 entry H          line    36 file /home/xy3866/psi4conda/share/psi4/basis/aug-cc-pvtz.gbs 


         ---------------------------------------------------------
                                   SCF
               by Justin Turney, Rob Parrish, Andy Simmonett
                          and Daniel G. A. Smith
                              RHF Reference
                        8 Threads,  30517 MiB Core
         ---------------------------------------------------------

  ==> Geometry <==

    Molecular point group: c1
    Full point group: C1

    Geometry (in Angstrom), charge = 0, multiplicity = 1:

       Center              X                  Y                   Z               Mass       
    ------------   -----------------  -----------------  -----------------  -----------------
         O           -1.444919621950     1.815517019286     0.000020096260    15.994914619570
         O            2.857817378050     0.235077019286    -0.000060903740    15.994914619570
         N           -1.139952621950    -0.480714980714     0.000196096260    14.003074004430
         N            0.684548378050     0.958492019286     0.000279096260    14.003074004430
         C           -0.699362621950     0.839972019286    -0.000307903740    12.000000000000
         C           -0.254569621950    -1.541205980714     0.000041096260    12.000000000000
         C           -2.578591621950    -0.736397980714    -0.000073903740    12.000000000000
         C            1.087301978050    -1.371781680714     0.000071196260    12.000000000000
         C            1.660015378050    -0.045371980714    -0.000219903740    12.000000000000
         H           -0.735182121950    -2.515269980714     0.000175096260     1.007825032230
         H           -2.861735621950    -1.297407980714     0.893632096260     1.007825032230
         H           -2.861122621950    -1.298487980714    -0.893343903740     1.007825032230
         H           -3.079084621950     0.229078019286    -0.000818903740     1.007825032230
         H            1.023909378050     1.918067019286     0.000316096260     1.007825032230
         H            1.766368378050    -2.227352980714    -0.000087903740     1.007825032230

  Running in c1 symmetry.

  Rotational constants: A =      0.10824  B =      0.04748  C =      0.03321 [cm^-1]
  Rotational constants: A =   3244.87802  B =   1423.30570  C =    995.61958 [MHz]
  Nuclear repulsion =  441.393579948759850

  Charge       = 0
  Multiplicity = 1
  Electrons    = 66
  Nalpha       = 33
  Nbeta        = 33

  ==> Algorithm <==

  SCF Algorithm Type is DF.
  DIIS enabled.
  MOM disabled.
  Fractional occupation disabled.
  Guess Type is SAD.
  Energy threshold   = 1.00e-10
  Density threshold  = 1.00e-10
  Integral threshold = 0.00e+00

  ==> Primary Basis <==

  Basis Set: AUG-CC-PVTZ
    Blend: AUG-CC-PVTZ
    Number of shells: 180
    Number of basis function: 552
    Number of Cartesian functions: 645
    Spherical Harmonics?: true
    Max angular momentum: 3

   => Loading Basis Set <=

    Name: (AUG-CC-PVTZ AUX)
    Role: JKFIT
    Keyword: DF_BASIS_SCF
    atoms 1-2   entry O          line   286 file /home/xy3866/psi4conda/share/psi4/basis/aug-cc-pvtz-jkfit.gbs 
    atoms 3-4   entry N          line   224 file /home/xy3866/psi4conda/share/psi4/basis/aug-cc-pvtz-jkfit.gbs 
    atoms 5-9   entry C          line   162 file /home/xy3866/psi4conda/share/psi4/basis/aug-cc-pvtz-jkfit.gbs 
    atoms 10-15 entry H          line    70 file /home/xy3866/psi4conda/share/psi4/basis/aug-cc-pvtz-jkfit.gbs 

  ==> Pre-Iterations <==

   -------------------------------------------------------
    Irrep   Nso     Nmo     Nalpha   Nbeta   Ndocc  Nsocc
   -------------------------------------------------------
     A        552     552       0       0       0       0
   -------------------------------------------------------
    Total     552     552      33      33      33       0
   -------------------------------------------------------

  ==> Integral Setup <==

  DFHelper Memory: AOs need 2.733 GiB; user supplied 22.352 GiB. Using in-core AOs.

  ==> MemDFJK: Density-Fitted J/K Matrices <==

    J tasked:                   Yes
    K tasked:                   Yes
    wK tasked:                   No
    OpenMP threads:               8
    Memory [MiB]:             22888
    Algorithm:                 Disk
    Schwarz Cutoff:           1E-12
    Mask sparsity (%):       3.9415
    Fitting Condition:        1E-10

   => Auxiliary Basis Set <=

  Basis Set: (AUG-CC-PVTZ AUX)
    Blend: AUG-CC-PVTZ-JKFIT
    Number of shells: 354
    Number of basis function: 1212
    Number of Cartesian functions: 1509
    Spherical Harmonics?: true
    Max angular momentum: 4

  Minimum eigenvalue in the overlap matrix is 2.5264935984E-06.
  Using Symmetric Orthogonalization.

  SCF Guess: Superposition of Atomic Densities via on-the-fly atomic UHF.

  ==> Iterations <==

                           Total Energy        Delta E     RMS |[F,P]|

   @DF-RHF iter SAD:  -450.94953234181469   -4.50950e+02   0.00000e+00 
   @DF-RHF iter   1:  -451.39202282669748   -4.42490e-01   1.37478e-03 DIIS
   @DF-RHF iter   2:  -451.57103751515899   -1.79015e-01   9.10339e-04 DIIS
   @DF-RHF iter   3:  -451.65360323989927   -8.25657e-02   1.78013e-04 DIIS
   @DF-RHF iter   4:  -451.65891578710153   -5.31255e-03   6.90939e-05 DIIS
   @DF-RHF iter   5:  -451.65991601405096   -1.00023e-03   1.46504e-05 DIIS
   @DF-RHF iter   6:  -451.66003184682245   -1.15833e-04   7.72052e-06 DIIS
   @DF-RHF iter   7:  -451.66005817052820   -2.63237e-05   2.84206e-06 DIIS
   @DF-RHF iter   8:  -451.66006217754853   -4.00702e-06   1.04662e-06 DIIS
   @DF-RHF iter   9:  -451.66006250552488   -3.27976e-07   4.11144e-07 DIIS
   @DF-RHF iter  10:  -451.66006257485452   -6.93296e-08   1.51317e-07 DIIS
   @DF-RHF iter  11:  -451.66006258383231   -8.97779e-09   5.75855e-08 DIIS
   @DF-RHF iter  12:  -451.66006258509822   -1.26590e-09   1.44861e-08 DIIS
   @DF-RHF iter  13:  -451.66006258520389   -1.05672e-10   6.42084e-09 DIIS
   @DF-RHF iter  14:  -451.66006258521759   -1.36993e-11   2.60876e-09 DIIS
   @DF-RHF iter  15:  -451.66006258522106   -3.46745e-12   9.33468e-10 DIIS
   @DF-RHF iter  16:  -451.66006258522299   -1.93268e-12   3.21620e-10 DIIS
   @DF-RHF iter  17:  -451.66006258522214    8.52651e-13   1.51400e-10 DIIS
   @DF-RHF iter  18:  -451.66006258522282   -6.82121e-13   5.30481e-11 DIIS
  Energy and wave function converged.


  ==> Post-Iterations <==

    Orbital Energies [Eh]
    ---------------------

    Doubly Occupied:                                                      

       1A    -20.545319     2A    -20.538415     3A    -15.644459  
       4A    -15.626277     5A    -11.418393     6A    -11.379080  
       7A    -11.337931     8A    -11.290116     9A    -11.256106  
      10A     -1.428356    11A     -1.388041    12A     -1.312625  
      13A     -1.245656    14A     -1.091805    15A     -0.989941  
      16A     -0.932359    17A     -0.871944    18A     -0.772152  
      19A     -0.751997    20A     -0.700791    21A     -0.685388  
      22A     -0.657169    23A     -0.644214    24A     -0.615143  
      25A     -0.608550    26A     -0.603037    27A     -0.570687  
      28A     -0.554465    29A     -0.499504    30A     -0.480196  
      31A     -0.446386    32A     -0.432902    33A     -0.360666  

    Virtual:                                                              

      34A      0.017078    35A      0.032603    36A      0.035560  
      37A      0.040108    38A      0.050003    39A      0.061654  
      40A      0.073492    41A      0.074992    42A      0.076766  
      43A      0.089865    44A      0.101111    45A      0.102542  
      46A      0.104662    47A      0.112167    48A      0.120097  
      49A      0.120593    50A      0.126854    51A      0.130874  
      52A      0.137133    53A      0.139604    54A      0.144465  
      55A      0.149120    56A      0.156360    57A      0.161062  
      58A      0.167749    59A      0.182313    60A      0.189445  
      61A      0.192452    62A      0.205542    63A      0.214328  
      64A      0.219968    65A      0.224639    66A      0.228790  
      67A      0.238809    68A      0.248252    69A      0.249551  
      70A      0.252725    71A      0.264919    72A      0.265261  
      73A      0.278873    74A      0.281479    75A      0.284177  
      76A      0.290380    77A      0.290599    78A      0.293390  
      79A      0.309482    80A      0.317544    81A      0.326457  
      82A      0.327067    83A      0.332837    84A      0.336853  
      85A      0.338380    86A      0.343086    87A      0.362371  
      88A      0.367061    89A      0.369320    90A      0.378167  
      91A      0.385917    92A      0.389165    93A      0.395388  
      94A      0.399799    95A      0.407103    96A      0.411920  
      97A      0.414249    98A      0.419310    99A      0.429780  
     100A      0.432869   101A      0.442437   102A      0.444879  
     103A      0.450736   104A      0.454384   105A      0.458049  
     106A      0.462096   107A      0.477717   108A      0.480152  
     109A      0.483074   110A      0.494304   111A      0.494461  
     112A      0.501365   113A      0.504764   114A      0.511442  
     115A      0.516857   116A      0.530882   117A      0.534646  
     118A      0.539064   119A      0.550768   120A      0.554455  
     121A      0.558729   122A      0.565168   123A      0.585972  
     124A      0.596770   125A      0.604853   126A      0.618145  
     127A      0.620468   128A      0.624621   129A      0.636208  
     130A      0.636363   131A      0.649812   132A      0.656003  
     133A      0.659834   134A      0.673078   135A      0.685800  
     136A      0.698059   137A      0.707862   138A      0.711908  
     139A      0.729307   140A      0.739262   141A      0.745266  
     142A      0.750488   143A      0.759930   144A      0.763651  
     145A      0.767506   146A      0.787807   147A      0.799467  
     148A      0.809151   149A      0.810611   150A      0.829960  
     151A      0.831848   152A      0.841697   153A      0.842525  
     154A      0.856885   155A      0.860303   156A      0.869233  
     157A      0.870680   158A      0.881909   159A      0.888781  
     160A      0.889230   161A      0.894325   162A      0.905790  
     163A      0.914270   164A      0.917769   165A      0.922504  
     166A      0.926312   167A      0.938423   168A      0.943343  
     169A      0.948607   170A      0.957961   171A      0.965319  
     172A      0.970049   173A      0.974607   174A      0.983226  
     175A      0.994821   176A      1.003066   177A      1.008734  
     178A      1.018438   179A      1.026666   180A      1.031202  
     181A      1.039628   182A      1.055166   183A      1.063969  
     184A      1.082005   185A      1.086053   186A      1.094796  
     187A      1.099282   188A      1.109643   189A      1.115372  
     190A      1.125120   191A      1.126923   192A      1.137494  
     193A      1.144799   194A      1.151193   195A      1.159330  
     196A      1.160172   197A      1.174015   198A      1.180117  
     199A      1.194982   200A      1.195541   201A      1.202322  
     202A      1.206228   203A      1.212952   204A      1.222462  
     205A      1.235314   206A      1.238857   207A      1.263911  
     208A      1.266815   209A      1.273543   210A      1.296683  
     211A      1.301506   212A      1.310413   213A      1.323003  
     214A      1.325401   215A      1.344543   216A      1.358761  
     217A      1.378318   218A      1.381740   219A      1.382363  
     220A      1.385525   221A      1.391129   222A      1.403335  
     223A      1.407863   224A      1.415735   225A      1.442717  
     226A      1.443736   227A      1.450184   228A      1.450890  
     229A      1.470254   230A      1.473635   231A      1.499845  
     232A      1.504822   233A      1.507580   234A      1.529914  
     235A      1.530056   236A      1.535822   237A      1.548310  
     238A      1.557205   239A      1.568898   240A      1.580021  
     241A      1.593201   242A      1.595210   243A      1.606950  
     244A      1.624334   245A      1.642818   246A      1.643276  
     247A      1.648064   248A      1.653260   249A      1.670469  
     250A      1.695127   251A      1.701924   252A      1.713998  
     253A      1.730244   254A      1.743968   255A      1.746032  
     256A      1.751139   257A      1.755920   258A      1.774297  
     259A      1.780658   260A      1.789152   261A      1.794500  
     262A      1.825064   263A      1.837974   264A      1.849709  
     265A      1.854648   266A      1.883826   267A      1.896860  
     268A      1.908324   269A      1.913671   270A      1.933484  
     271A      1.942010   272A      1.954317   273A      1.959037  
     274A      1.972874   275A      1.980248   276A      1.990094  
     277A      2.009604   278A      2.060233   279A      2.074231  
     280A      2.105352   281A      2.112410   282A      2.124519  
     283A      2.147143   284A      2.151698   285A      2.168593  
     286A      2.168799   287A      2.180084   288A      2.181933  
     289A      2.197555   290A      2.200025   291A      2.219869  
     292A      2.242230   293A      2.257935   294A      2.268575  
     295A      2.274538   296A      2.290437   297A      2.321625  
     298A      2.325962   299A      2.334882   300A      2.357693  
     301A      2.383463   302A      2.393798   303A      2.413251  
     304A      2.416274   305A      2.452549   306A      2.464124  
     307A      2.471734   308A      2.488155   309A      2.497928  
     310A      2.506247   311A      2.509666   312A      2.525629  
     313A      2.540135   314A      2.552604   315A      2.561138  
     316A      2.575226   317A      2.605049   318A      2.620783  
     319A      2.627895   320A      2.631379   321A      2.655286  
     322A      2.658073   323A      2.672908   324A      2.682915  
     325A      2.699168   326A      2.726094   327A      2.728980  
     328A      2.737353   329A      2.796214   330A      2.823745  
     331A      2.840334   332A      2.861100   333A      2.888120  
     334A      2.897612   335A      2.912926   336A      2.913773  
     337A      2.939859   338A      2.954785   339A      2.958848  
     340A      2.999848   341A      3.024998   342A      3.034754  
     343A      3.061874   344A      3.075615   345A      3.112954  
     346A      3.142108   347A      3.155692   348A      3.209415  
     349A      3.214414   350A      3.248563   351A      3.281193  
     352A      3.295806   353A      3.298862   354A      3.303844  
     355A      3.343311   356A      3.371108   357A      3.399304  
     358A      3.419016   359A      3.443652   360A      3.448363  
     361A      3.449199   362A      3.484441   363A      3.496421  
     364A      3.510438   365A      3.517478   366A      3.539605  
     367A      3.551462   368A      3.593264   369A      3.603105  
     370A      3.619864   371A      3.639109   372A      3.649504  
     373A      3.658540   374A      3.659903   375A      3.683278  
     376A      3.695909   377A      3.711817   378A      3.734496  
     379A      3.738989   380A      3.765273   381A      3.774381  
     382A      3.790836   383A      3.793081   384A      3.807858  
     385A      3.822752   386A      3.849049   387A      3.849977  
     388A      3.890452   389A      3.903176   390A      3.913791  
     391A      3.934683   392A      3.947907   393A      3.949215  
     394A      3.978857   395A      4.002632   396A      4.003991  
     397A      4.042154   398A      4.046675   399A      4.071363  
     400A      4.075064   401A      4.086838   402A      4.101632  
     403A      4.125338   404A      4.138111   405A      4.147644  
     406A      4.161134   407A      4.181642   408A      4.193485  
     409A      4.215738   410A      4.221578   411A      4.243189  
     412A      4.251312   413A      4.274367   414A      4.275092  
     415A      4.308408   416A      4.331461   417A      4.338710  
     418A      4.356981   419A      4.358612   420A      4.387631  
     421A      4.390073   422A      4.397675   423A      4.442484  
     424A      4.451809   425A      4.467843   426A      4.486711  
     427A      4.507824   428A      4.553716   429A      4.567781  
     430A      4.588943   431A      4.604363   432A      4.639245  
     433A      4.641352   434A      4.659726   435A      4.684482  
     436A      4.703544   437A      4.727033   438A      4.739311  
     439A      4.772224   440A      4.780206   441A      4.801714  
     442A      4.831170   443A      4.844830   444A      4.862286  
     445A      4.907413   446A      4.923085   447A      4.964834  
     448A      4.968825   449A      4.990844   450A      5.001042  
     451A      5.016922   452A      5.060904   453A      5.064206  
     454A      5.093662   455A      5.102125   456A      5.103031  
     457A      5.120496   458A      5.169731   459A      5.173079  
     460A      5.184452   461A      5.192586   462A      5.240724  
     463A      5.251434   464A      5.266929   465A      5.272722  
     466A      5.283526   467A      5.372989   468A      5.403918  
     469A      5.424616   470A      5.426108   471A      5.480607  
     472A      5.489938   473A      5.517717   474A      5.526735  
     475A      5.543192   476A      5.577120   477A      5.620744  
     478A      5.622489   479A      5.659587   480A      5.682622  
     481A      5.691441   482A      5.756940   483A      5.767718  
     484A      5.787720   485A      5.816035   486A      5.834287  
     487A      5.845328   488A      5.875076   489A      5.901149  
     490A      5.915151   491A      5.958458   492A      6.010295  
     493A      6.025813   494A      6.083310   495A      6.098345  
     496A      6.107976   497A      6.138077   498A      6.163270  
     499A      6.223104   500A      6.242585   501A      6.283725  
     502A      6.295246   503A      6.302306   504A      6.509452  
     505A      6.569370   506A      6.622932   507A      6.664235  
     508A      6.670029   509A      6.684293   510A      6.724534  
     511A      6.728913   512A      6.754087   513A      6.785473  
     514A      6.812238   515A      6.823414   516A      6.865680  
     517A      6.894316   518A      6.923701   519A      6.949330  
     520A      6.949955   521A      6.990317   522A      7.007295  
     523A      7.017825   524A      7.093846   525A      7.143869  
     526A      7.203628   527A      7.239802   528A      7.365967  
     529A      7.382903   530A      7.391225   531A      7.397200  
     532A      7.433982   533A      7.528146   534A      7.648312  
     535A      7.682193   536A      7.704359   537A      7.827526  
     538A      7.864349   539A      7.924511   540A      7.944998  
     541A      7.990795   542A      8.045485   543A      8.066866  
     544A     15.792368   545A     15.933714   546A     16.293815  
     547A     16.762789   548A     18.209882   549A     18.755785  
     550A     19.618982   551A     20.147404   552A     21.003441  

    Final Occupation by Irrep:
              A 
    DOCC [    33 ]

  @DF-RHF Final Energy:  -451.66006258522282

   => Energetics <=

    Nuclear Repulsion Energy =            441.3935799487598501
    One-Electron Energy =               -1490.7471437413694275
    Two-Electron Energy =                 597.6935012073867028
    Total Energy =                       -451.6600625852228177

Computation Completed

*** tstop() called on node142.bme.utexas.edu at Tue Nov  3 18:05:15 2020
Module time:
	user time   =     386.26 seconds =       6.44 minutes
	system time =      42.11 seconds =       0.70 minutes
	total time  =         83 seconds =       1.38 minutes
Total time:
	user time   =     386.26 seconds =       6.44 minutes
	system time =      42.11 seconds =       0.70 minutes
	total time  =         83 seconds =       1.38 minutes
   => Loading Basis Set <=

    Name: (AUG-CC-PVTZ AUX)
    Role: RIFIT
    Keyword: DF_BASIS_MP2
    atoms 1-2   entry O          line   264 file /home/xy3866/psi4conda/share/psi4/basis/aug-cc-pvtz-ri.gbs 
    atoms 3-4   entry N          line   206 file /home/xy3866/psi4conda/share/psi4/basis/aug-cc-pvtz-ri.gbs 
    atoms 5-9   entry C          line   148 file /home/xy3866/psi4conda/share/psi4/basis/aug-cc-pvtz-ri.gbs 
    atoms 10-15 entry H          line    30 file /home/xy3866/psi4conda/share/psi4/basis/aug-cc-pvtz-ri.gbs 


*** tstart() called on node142.bme.utexas.edu
*** at Tue Nov  3 18:05:15 2020


  //>>>>>>>>>>>>>>>>>>>>>>>>>>>>>>>>>>>//
  //               DFMP2               //
  //<<<<<<<<<<<<<<<<<<<<<<<<<<<<<<<<<<<//

	 --------------------------------------------------------
	                          DF-MP2                         
	      2nd-Order Density-Fitted Moller-Plesset Theory     
	              RMP2 Wavefunction,   8 Threads             
	                                                         
	        Rob Parrish, Justin Turney, Andy Simmonett,      
	           Ed Hohenstein, and C. David Sherrill          
	 --------------------------------------------------------

   => Auxiliary Basis Set <=

  Basis Set: (AUG-CC-PVTZ AUX)
    Blend: AUG-CC-PVTZ-RI
    Number of shells: 336
    Number of basis function: 1230
    Number of Cartesian functions: 1554
    Spherical Harmonics?: true
    Max angular momentum: 4

	 --------------------------------------------------------
	                 NBF =   552, NAUX =  1230
	 --------------------------------------------------------
	   CLASS    FOCC     OCC    AOCC    AVIR     VIR    FVIR
	   PAIRS       0      33      33     519     519       0
	 --------------------------------------------------------

  DFHelper Memory: AOs need 2.733 GiB; user supplied 22.352 GiB. Using in-core AOs.


         ------------------------------------------------------------
                                     CPHF                           
                                  Rob Parrish                       
         ------------------------------------------------------------

  ==> Geometry <==

    Molecular point group: c1
    Full point group: C1

    Geometry (in Angstrom), charge = 0, multiplicity = 1:

       Center              X                  Y                   Z               Mass       
    ------------   -----------------  -----------------  -----------------  -----------------
         O           -1.444919621950     1.815517019286     0.000020096260    15.994914619570
         O            2.857817378050     0.235077019286    -0.000060903740    15.994914619570
         N           -1.139952621950    -0.480714980714     0.000196096260    14.003074004430
         N            0.684548378050     0.958492019286     0.000279096260    14.003074004430
         C           -0.699362621950     0.839972019286    -0.000307903740    12.000000000000
         C           -0.254569621950    -1.541205980714     0.000041096260    12.000000000000
         C           -2.578591621950    -0.736397980714    -0.000073903740    12.000000000000
         C            1.087301978050    -1.371781680714     0.000071196260    12.000000000000
         C            1.660015378050    -0.045371980714    -0.000219903740    12.000000000000
         H           -0.735182121950    -2.515269980714     0.000175096260     1.007825032230
         H           -2.861735621950    -1.297407980714     0.893632096260     1.007825032230
         H           -2.861122621950    -1.298487980714    -0.893343903740     1.007825032230
         H           -3.079084621950     0.229078019286    -0.000818903740     1.007825032230
         H            1.023909378050     1.918067019286     0.000316096260     1.007825032230
         H            1.766368378050    -2.227352980714    -0.000087903740     1.007825032230

  Nuclear repulsion =  441.393579948759850
  Reference energy  = -451.660062585222818

  ==> Basis Set <==

  Basis Set: AUG-CC-PVTZ
    Blend: AUG-CC-PVTZ
    Number of shells: 180
    Number of basis function: 552
    Number of Cartesian functions: 645
    Spherical Harmonics?: true
    Max angular momentum: 3

  ==> CGRSolver (by Rob Parrish) <==

   Number of roots    =         1
   Preconditioning    =    JACOBI
   Convergence cutoff =     1E-06
   Maximum iterations =       100

  ==> CPHFRHamiltonian (by Rob Parrish) <== 

  ==> MemDFJK: Density-Fitted J/K Matrices <==

    J tasked:                   Yes
    K tasked:                   Yes
    wK tasked:                   No
    OpenMP threads:               8
    Memory [MiB]:             22888
    Algorithm:                 Disk
    Schwarz Cutoff:           1E-12
    Mask sparsity (%):       3.9415
    Fitting Condition:        1E-10

   => Auxiliary Basis Set <=

  Basis Set: (AUG-CC-PVTZ AUX)
    Blend: AUG-CC-PVTZ-JKFIT
    Number of shells: 354
    Number of basis function: 1212
    Number of Cartesian functions: 1509
    Spherical Harmonics?: true
    Max angular momentum: 4

  ==> CPHF Iterations <==

  => Iterations <=

             Iter  Converged  Remaining    Residual
  CGR           1          0          1   1.420E-01
  CGR           2          0          1   4.514E-02
  CGR           3          0          1   1.730E-02
  CGR           4          0          1   4.156E-03
  CGR           5          0          1   1.474E-03
  CGR           6          0          1   6.266E-04
  CGR           7          0          1   2.112E-04
  CGR           8          0          1   9.124E-05
  CGR           9          0          1   3.140E-05
  CGR          10          0          1   1.083E-05
  CGR          11          0          1   4.196E-06
  CGR          12          0          1   1.363E-06
  CGR          13          1          0   6.352E-07

    CGRSolver converged.

	-----------------------------------------------------------
	 ==================> DF-MP2 Energies <==================== 
	-----------------------------------------------------------
	 Reference Energy          =    -451.6600625852228177 [Eh]
	 Singles Energy            =      -0.0000000000000000 [Eh]
	 Same-Spin Energy          =      -0.4582332907022731 [Eh]
	 Opposite-Spin Energy      =      -1.3849913740156763 [Eh]
	 Correlation Energy        =      -1.8432246647179493 [Eh]
	 Total Energy              =    -453.5032872499407404 [Eh]
	-----------------------------------------------------------
	 ================> DF-SCS-MP2 Energies <================== 
	-----------------------------------------------------------
	 SCS Same-Spin Scale       =       0.3333333333333333 [-]
	 SCS Opposite-Spin Scale   =       1.2000000000000000 [-]
	 SCS Same-Spin Energy      =      -0.1527444302340910 [Eh]
	 SCS Opposite-Spin Energy  =      -1.6619896488188115 [Eh]
	 SCS Correlation Energy    =      -1.8147340790529025 [Eh]
	 SCS Total Energy          =    -453.4747966642757433 [Eh]
	-----------------------------------------------------------



Properties will be evaluated at   0.000000,  -0.000000,   0.000000 [a0]

Properties computed using the MP2 density matrix

  Nuclear Dipole Moment: [e a0]
     X:    -6.3169      Y:    -4.8583      Z:    -0.0001

  Electronic Dipole Moment: [e a0]
     X:     5.0342      Y:     3.4592      Z:    -0.0002

  Dipole Moment: [e a0]
     X:    -1.2826      Y:    -1.3991      Z:    -0.0003     Total:     1.8981

  Dipole Moment: [D]
     X:    -3.2601      Y:    -3.5562      Z:    -0.0009     Total:     4.8244


*** tstop() called on node142.bme.utexas.edu at Tue Nov  3 18:08:20 2020
Module time:
	user time   =    1028.09 seconds =      17.13 minutes
	system time =      48.01 seconds =       0.80 minutes
	total time  =        185 seconds =       3.08 minutes
Total time:
	user time   =    1415.60 seconds =      23.59 minutes
	system time =      90.22 seconds =       1.50 minutes
	total time  =        268 seconds =       4.47 minutes

    Psi4 stopped on: Tuesday, 03 November 2020 06:08PM
    Psi4 wall time for execution: 0:04:28.55

*** Psi4 exiting successfully. Buy a developer a beer!
