
    -----------------------------------------------------------------------
          Psi4: An Open-Source Ab Initio Electronic Structure Package
                               Psi4 1.4a3.dev225 

                         Git: Rev {master} 7105e37 


    D. G. A. Smith, L. A. Burns, A. C. Simmonett, R. M. Parrish,
    M. C. Schieber, R. Galvelis, P. Kraus, H. Kruse, R. Di Remigio,
    A. Alenaizan, A. M. James, S. Lehtola, J. P. Misiewicz, M. Scheurer,
    R. A. Shaw, J. B. Schriber, Y. Xie, Z. L. Glick, D. A. Sirianni,
    J. S. O'Brien, J. M. Waldrop, A. Kumar, E. G. Hohenstein,
    B. P. Pritchard, B. R. Brooks, H. F. Schaefer III, A. Yu. Sokolov,
    K. Patkowski, A. E. DePrince III, U. Bozkaya, R. A. King,
    F. A. Evangelista, J. M. Turney, T. D. Crawford, C. D. Sherrill,
    J. Chem. Phys. 152(18) 184108 (2020). https://doi.org/10.1063/5.0006002

                            Additional Code Authors
    E. T. Seidl, C. L. Janssen, E. F. Valeev, M. L. Leininger,
    J. F. Gonthier, R. M. Richard, H. R. McAlexander, M. Saitow, X. Wang,
    P. Verma, and M. H. Lechner

             Previous Authors, Complete List of Code Contributors,
                       and Citations for Specific Modules
    https://github.com/psi4/psi4/blob/master/codemeta.json
    https://github.com/psi4/psi4/graphs/contributors
    http://psicode.org/psi4manual/master/introduction.html#citing-psifour

    -----------------------------------------------------------------------


    Psi4 started on: Saturday, 20 March 2021 08:26PM

    Process ID: 148505
    Host:       c445-024.stampede2.tacc.utexas.edu
    PSIDATADIR: /home1/07844/xy3866/miniconda3/envs/p4env/share/psi4
    Memory:     500.0 MiB
    Threads:    32
    
  ==> Input File <==

--------------------------------------------------------------------------
#psi4
#
memory 32 gb

molecule  {
0 1
  O       -1.4350980    -1.8086910     0.0000000
  O        2.9075840    -0.3082450     0.0000000
  N       -1.0785060     0.4619330     0.0000000
  N        0.7249750    -1.0056720    -0.0000010
  C       -0.6517050    -0.8641080     0.0000000
  C       -0.1841290     1.5083600     0.0000000
  C       -2.5245930     0.6731660     0.0000000
  C        1.1582900     1.3329580     0.0000000
  C        1.7357013    -0.0543091     0.0000000
  H       -0.6338540     2.4967290    -0.0000010
  H       -2.9690000     0.2175100    -0.8862740
  H       -2.7140630     1.7465080     0.0000000
  H       -2.9689990     0.2175090     0.8862740
  H        1.0585810    -1.9665760     0.0000000
  H        1.8360540     2.1766110     0.0000000
units angstrom
no_reorient  #important for SAPT in psi4, default
symmetry c1  #important for SAPT in psi4, default
}

set PROPERTIES_ORIGIN ["COM"]
properties('MP2/aug-cc-pvtz', properties = ['dipole'])
--------------------------------------------------------------------------

  Memory set to  29.802 GiB by Python driver.
    SCF Algorithm Type (re)set to DF.

*** tstart() called on c445-024.stampede2.tacc.utexas.edu
*** at Sat Mar 20 20:26:34 2021

   => Loading Basis Set <=

    Name: AUG-CC-PVTZ
    Role: ORBITAL
    Keyword: BASIS
    atoms 1-2   entry O          line   331 file /home1/07844/xy3866/miniconda3/envs/p4env/share/psi4/basis/aug-cc-pvtz.gbs 
    atoms 3-4   entry N          line   285 file /home1/07844/xy3866/miniconda3/envs/p4env/share/psi4/basis/aug-cc-pvtz.gbs 
    atoms 5-9   entry C          line   239 file /home1/07844/xy3866/miniconda3/envs/p4env/share/psi4/basis/aug-cc-pvtz.gbs 
    atoms 10-15 entry H          line    40 file /home1/07844/xy3866/miniconda3/envs/p4env/share/psi4/basis/aug-cc-pvtz.gbs 


         ---------------------------------------------------------
                                   SCF
               by Justin Turney, Rob Parrish, Andy Simmonett
                          and Daniel G. A. Smith
                              RHF Reference
                       32 Threads,  30517 MiB Core
         ---------------------------------------------------------

  ==> Geometry <==

    Molecular point group: c1
    Full point group: C1

    Geometry (in Angstrom), charge = 0, multiplicity = 1:

       Center              X                  Y                   Z               Mass       
    ------------   -----------------  -----------------  -----------------  -----------------
         O           -1.487169511239    -1.765889049061     0.000000119094    15.994914619570
         O            2.855512488761    -0.265443049061     0.000000119094    15.994914619570
         N           -1.130577511239     0.504734950939     0.000000119094    14.003074004430
         N            0.672903488761    -0.962870049061    -0.000000880906    14.003074004430
         C           -0.703776511239    -0.821306049061     0.000000119094    12.000000000000
         C           -0.236200511239     1.551161950939     0.000000119094    12.000000000000
         C           -2.576664511239     0.715967950939     0.000000119094    12.000000000000
         C            1.106218488761     1.375759950939     0.000000119094    12.000000000000
         C            1.683629788761    -0.011507149061     0.000000119094    12.000000000000
         H           -0.685925511239     2.539530950939    -0.000000880906     1.007825032230
         H           -3.021071511239     0.260311950939    -0.886273880906     1.007825032230
         H           -2.766134511239     1.789309950939     0.000000119094     1.007825032230
         H           -3.021070511239     0.260310950939     0.886274119094     1.007825032230
         H            1.006509488761    -1.923774049061     0.000000119094     1.007825032230
         H            1.783982488761     2.219412950939     0.000000119094     1.007825032230

  Running in c1 symmetry.

  Rotational constants: A =      0.10989  B =      0.04715  C =      0.03320 [cm^-1]
  Rotational constants: A =   3294.34720  B =   1413.51083  C =    995.27941 [MHz]
  Nuclear repulsion =  441.608652557430275

  Charge       = 0
  Multiplicity = 1
  Electrons    = 66
  Nalpha       = 33
  Nbeta        = 33

  ==> Algorithm <==

  SCF Algorithm Type is DF.
  DIIS enabled.
  MOM disabled.
  Fractional occupation disabled.
  Guess Type is SAD.
  Energy threshold   = 1.00e-10
  Density threshold  = 1.00e-10
  Integral threshold = 1.00e-12

  ==> Primary Basis <==

  Basis Set: AUG-CC-PVTZ
    Blend: AUG-CC-PVTZ
    Number of shells: 180
    Number of basis functions: 552
    Number of Cartesian functions: 645
    Spherical Harmonics?: true
    Max angular momentum: 3

   => Loading Basis Set <=

    Name: (AUG-CC-PVTZ AUX)
    Role: JKFIT
    Keyword: DF_BASIS_SCF
    atoms 1-2   entry O          line   286 file /home1/07844/xy3866/miniconda3/envs/p4env/share/psi4/basis/aug-cc-pvtz-jkfit.gbs 
    atoms 3-4   entry N          line   224 file /home1/07844/xy3866/miniconda3/envs/p4env/share/psi4/basis/aug-cc-pvtz-jkfit.gbs 
    atoms 5-9   entry C          line   162 file /home1/07844/xy3866/miniconda3/envs/p4env/share/psi4/basis/aug-cc-pvtz-jkfit.gbs 
    atoms 10-15 entry H          line    70 file /home1/07844/xy3866/miniconda3/envs/p4env/share/psi4/basis/aug-cc-pvtz-jkfit.gbs 

  ==> Integral Setup <==

  DFHelper Memory: AOs need 2.718 GiB; user supplied 22.352 GiB. Using in-core AOs.

  ==> MemDFJK: Density-Fitted J/K Matrices <==

    J tasked:                   Yes
    K tasked:                   Yes
    wK tasked:                   No
    OpenMP threads:              32
    Memory [MiB]:             22888
    Algorithm:                 Core
    Schwarz Cutoff:           1E-12
    Mask sparsity (%):       6.4981
    Fitting Condition:        1E-10

   => Auxiliary Basis Set <=

  Basis Set: (AUG-CC-PVTZ AUX)
    Blend: AUG-CC-PVTZ-JKFIT
    Number of shells: 354
    Number of basis functions: 1212
    Number of Cartesian functions: 1509
    Spherical Harmonics?: true
    Max angular momentum: 4

  Minimum eigenvalue in the overlap matrix is 2.4567651865E-06.
  Reciprocal condition number of the overlap matrix is 1.4020558844E-07.
    Using symmetric orthogonalization.

  ==> Pre-Iterations <==

  SCF Guess: Superposition of Atomic Densities via on-the-fly atomic UHF (no occupation information).

   -------------------------
    Irrep   Nso     Nmo    
   -------------------------
     A        552     552 
   -------------------------
    Total     552     552
   -------------------------

  ==> Iterations <==

                           Total Energy        Delta E     RMS |[F,P]|

   @DF-RHF iter SAD:  -450.96824318873217   -4.50968e+02   0.00000e+00 
   @DF-RHF iter   1:  -451.39504718702614   -4.26804e-01   1.37108e-03 DIIS
   @DF-RHF iter   2:  -451.57638195605659   -1.81335e-01   8.90320e-04 DIIS
   @DF-RHF iter   3:  -451.65496621629808   -7.85843e-02   1.74509e-04 DIIS
   @DF-RHF iter   4:  -451.66003896919864   -5.07275e-03   6.85205e-05 DIIS
   @DF-RHF iter   5:  -451.66099723328176   -9.58264e-04   1.38588e-05 DIIS
   @DF-RHF iter   6:  -451.66110125688544   -1.04024e-04   7.16378e-06 DIIS
   @DF-RHF iter   7:  -451.66112322289644   -2.19660e-05   2.53420e-06 DIIS
   @DF-RHF iter   8:  -451.66112638909885   -3.16620e-06   7.61301e-07 DIIS
   @DF-RHF iter   9:  -451.66112659810011   -2.09001e-07   2.71837e-07 DIIS
   @DF-RHF iter  10:  -451.66112662792807   -2.98280e-08   1.11784e-07 DIIS
   @DF-RHF iter  11:  -451.66112663216052   -4.23245e-09   4.09216e-08 DIIS
   @DF-RHF iter  12:  -451.66112663267603   -5.15513e-10   1.19289e-08 DIIS
   @DF-RHF iter  13:  -451.66112663273168   -5.56497e-11   4.98739e-09 DIIS
   @DF-RHF iter  14:  -451.66112663273975   -8.07177e-12   2.21781e-09 DIIS
   @DF-RHF iter  15:  -451.66112663274174   -1.98952e-12   7.46122e-10 DIIS
   @DF-RHF iter  16:  -451.66112663274129    4.54747e-13   3.05075e-10 DIIS
   @DF-RHF iter  17:  -451.66112663274197   -6.82121e-13   1.17337e-10 DIIS
   @DF-RHF iter  18:  -451.66112663274168    2.84217e-13   4.17658e-11 DIIS
  Energy and wave function converged.


  ==> Post-Iterations <==

    Orbital Energies [Eh]
    ---------------------

    Doubly Occupied:                                                      

       1A    -20.546611     2A    -20.543912     3A    -15.641046  
       4A    -15.627620     5A    -11.417539     6A    -11.379834  
       7A    -11.330865     8A    -11.290518     9A    -11.252790  
      10A     -1.431947    11A     -1.406922    12A     -1.310634  
      13A     -1.252960    14A     -1.081734    15A     -0.987697  
      16A     -0.922657    17A     -0.877653    18A     -0.771647  
      19A     -0.745897    20A     -0.698659    21A     -0.685135  
      22A     -0.663231    23A     -0.645782    24A     -0.614346  
      25A     -0.606770    26A     -0.603408    27A     -0.576430  
      28A     -0.556081    29A     -0.501202    30A     -0.479410  
      31A     -0.447331    32A     -0.438128    33A     -0.354948  

    Virtual:                                                              

      34A      0.018106    35A      0.033426    36A      0.038722  
      37A      0.042489    38A      0.049483    39A      0.056874  
      40A      0.076177    41A      0.078309    42A      0.080148  
      43A      0.092188    44A      0.099098    45A      0.102040  
      46A      0.106162    47A      0.118794    48A      0.121327  
      49A      0.124665    50A      0.126991    51A      0.129645  
      52A      0.138099    53A      0.142883    54A      0.147506  
      55A      0.148293    56A      0.150819    57A      0.161681  
      58A      0.164105    59A      0.176490    60A      0.184348  
      61A      0.198557    62A      0.210301    63A      0.214517  
      64A      0.221504    65A      0.226671    66A      0.228195  
      67A      0.240133    68A      0.244360    69A      0.248976  
      70A      0.257393    71A      0.265587    72A      0.271251  
      73A      0.280684    74A      0.283115    75A      0.285898  
      76A      0.289748    77A      0.295203    78A      0.302122  
      79A      0.304547    80A      0.310208    81A      0.325150  
      82A      0.328252    83A      0.329819    84A      0.336247  
      85A      0.337593    86A      0.344103    87A      0.356267  
      88A      0.361953    89A      0.368499    90A      0.376302  
      91A      0.382689    92A      0.393960    93A      0.397089  
      94A      0.404082    95A      0.404358    96A      0.409430  
      97A      0.418414    98A      0.423934    99A      0.428843  
     100A      0.429949   101A      0.438502   102A      0.443829  
     103A      0.451018   104A      0.458117   105A      0.464837  
     106A      0.471036   107A      0.472722   108A      0.477053  
     109A      0.487119   110A      0.489703   111A      0.501752  
     112A      0.508696   113A      0.515558   114A      0.519024  
     115A      0.524788   116A      0.526213   117A      0.529905  
     118A      0.539046   119A      0.545635   120A      0.553956  
     121A      0.561721   122A      0.581644   123A      0.587910  
     124A      0.600985   125A      0.610467   126A      0.615867  
     127A      0.617996   128A      0.625292   129A      0.635247  
     130A      0.640745   131A      0.641063   132A      0.651958  
     133A      0.661463   134A      0.680800   135A      0.686263  
     136A      0.693438   137A      0.702692   138A      0.712082  
     139A      0.724047   140A      0.737075   141A      0.747085  
     142A      0.758406   143A      0.758495   144A      0.768326  
     145A      0.771797   146A      0.789121   147A      0.790402  
     148A      0.806934   149A      0.808744   150A      0.819387  
     151A      0.830030   152A      0.836251   153A      0.848387  
     154A      0.855566   155A      0.863903   156A      0.867128  
     157A      0.873443   158A      0.880432   159A      0.888855  
     160A      0.891727   161A      0.898827   162A      0.910675  
     163A      0.914765   164A      0.917001   165A      0.917165  
     166A      0.922375   167A      0.935064   168A      0.941604  
     169A      0.955992   170A      0.963502   171A      0.964834  
     172A      0.971826   173A      0.973601   174A      0.976929  
     175A      0.993447   176A      0.994566   177A      1.021880  
     178A      1.024038   179A      1.028307   180A      1.041972  
     181A      1.052022   182A      1.055749   183A      1.064822  
     184A      1.072195   185A      1.072399   186A      1.084868  
     187A      1.094362   188A      1.113963   189A      1.114680  
     190A      1.122699   191A      1.142285   192A      1.145684  
     193A      1.153209   194A      1.160708   195A      1.167931  
     196A      1.170786   197A      1.173578   198A      1.176305  
     199A      1.183846   200A      1.192227   201A      1.204215  
     202A      1.206613   203A      1.216485   204A      1.220683  
     205A      1.225691   206A      1.228537   207A      1.256914  
     208A      1.270930   209A      1.275008   210A      1.286410  
     211A      1.306094   212A      1.315595   213A      1.327534  
     214A      1.333680   215A      1.336625   216A      1.350863  
     217A      1.358760   218A      1.369565   219A      1.389273  
     220A      1.392821   221A      1.397518   222A      1.397816  
     223A      1.414107   224A      1.416337   225A      1.432199  
     226A      1.440921   227A      1.456373   228A      1.467811  
     229A      1.472405   230A      1.484406   231A      1.490578  
     232A      1.496508   233A      1.500267   234A      1.515792  
     235A      1.529885   236A      1.537346   237A      1.560124  
     238A      1.565704   239A      1.572852   240A      1.584045  
     241A      1.598820   242A      1.599896   243A      1.608873  
     244A      1.626501   245A      1.640260   246A      1.646021  
     247A      1.658873   248A      1.665891   249A      1.678943  
     250A      1.679963   251A      1.695420   252A      1.710950  
     253A      1.719923   254A      1.723387   255A      1.724086  
     256A      1.752053   257A      1.759695   258A      1.769369  
     259A      1.773497   260A      1.795718   261A      1.806785  
     262A      1.816290   263A      1.832376   264A      1.852410  
     265A      1.860605   266A      1.880254   267A      1.899358  
     268A      1.908503   269A      1.918050   270A      1.932658  
     271A      1.937946   272A      1.949962   273A      1.971143  
     274A      1.984069   275A      2.004514   276A      2.012354  
     277A      2.036898   278A      2.067702   279A      2.069947  
     280A      2.079466   281A      2.109127   282A      2.118854  
     283A      2.141322   284A      2.145231   285A      2.162517  
     286A      2.174443   287A      2.179071   288A      2.183044  
     289A      2.189229   290A      2.203230   291A      2.233315  
     292A      2.248200   293A      2.259285   294A      2.261673  
     295A      2.281362   296A      2.295287   297A      2.298248  
     298A      2.315117   299A      2.341137   300A      2.348523  
     301A      2.374262   302A      2.388774   303A      2.398041  
     304A      2.424911   305A      2.449139   306A      2.464531  
     307A      2.466342   308A      2.468914   309A      2.507557  
     310A      2.521641   311A      2.527917   312A      2.539595  
     313A      2.541037   314A      2.553283   315A      2.574036  
     316A      2.585964   317A      2.589756   318A      2.592533  
     319A      2.597062   320A      2.602087   321A      2.636996  
     322A      2.658970   323A      2.685648   324A      2.702579  
     325A      2.709765   326A      2.724665   327A      2.739345  
     328A      2.744130   329A      2.798842   330A      2.820568  
     331A      2.841581   332A      2.843647   333A      2.845552  
     334A      2.880181   335A      2.909237   336A      2.924505  
     337A      2.930300   338A      2.956232   339A      2.965029  
     340A      3.004797   341A      3.021905   342A      3.056152  
     343A      3.065813   344A      3.084429   345A      3.102534  
     346A      3.114475   347A      3.170742   348A      3.197293  
     349A      3.223686   350A      3.281137   351A      3.286139  
     352A      3.296766   353A      3.301933   354A      3.333186  
     355A      3.356618   356A      3.363745   357A      3.372116  
     358A      3.415351   359A      3.426562   360A      3.458451  
     361A      3.464249   362A      3.486012   363A      3.486881  
     364A      3.507468   365A      3.542854   366A      3.544078  
     367A      3.555873   368A      3.586984   369A      3.611754  
     370A      3.628536   371A      3.635484   372A      3.643102  
     373A      3.667902   374A      3.679875   375A      3.689877  
     376A      3.700131   377A      3.708299   378A      3.728602  
     379A      3.753094   380A      3.761713   381A      3.766598  
     382A      3.780070   383A      3.794241   384A      3.803043  
     385A      3.824135   386A      3.844255   387A      3.871107  
     388A      3.887577   389A      3.908204   390A      3.925241  
     391A      3.938223   392A      3.950435   393A      3.958743  
     394A      3.985120   395A      3.995269   396A      4.020655  
     397A      4.022648   398A      4.044872   399A      4.072925  
     400A      4.080455   401A      4.098014   402A      4.109243  
     403A      4.130098   404A      4.142507   405A      4.146132  
     406A      4.167313   407A      4.172276   408A      4.173517  
     409A      4.239483   410A      4.239645   411A      4.243722  
     412A      4.244453   413A      4.264542   414A      4.267975  
     415A      4.290126   416A      4.302287   417A      4.351664  
     418A      4.364276   419A      4.367755   420A      4.390087  
     421A      4.408222   422A      4.425065   423A      4.441454  
     424A      4.445150   425A      4.453924   426A      4.483259  
     427A      4.527006   428A      4.536573   429A      4.547009  
     430A      4.626543   431A      4.637657   432A      4.644469  
     433A      4.658075   434A      4.675637   435A      4.682310  
     436A      4.683112   437A      4.735992   438A      4.736858  
     439A      4.747252   440A      4.791218   441A      4.795810  
     442A      4.844736   443A      4.854435   444A      4.870676  
     445A      4.916296   446A      4.928317   447A      4.943928  
     448A      4.961779   449A      4.998855   450A      5.007492  
     451A      5.022578   452A      5.040122   453A      5.057263  
     454A      5.086712   455A      5.086843   456A      5.106382  
     457A      5.120892   458A      5.172817   459A      5.179582  
     460A      5.185536   461A      5.205128   462A      5.243593  
     463A      5.259632   464A      5.261213   465A      5.287202  
     466A      5.300876   467A      5.374478   468A      5.407601  
     469A      5.419306   470A      5.439196   471A      5.484729  
     472A      5.508495   473A      5.511026   474A      5.541906  
     475A      5.548649   476A      5.606433   477A      5.617478  
     478A      5.631385   479A      5.656616   480A      5.682304  
     481A      5.696700   482A      5.734548   483A      5.768151  
     484A      5.782458   485A      5.814763   486A      5.817537  
     487A      5.872545   488A      5.872772   489A      5.909264  
     490A      5.925288   491A      5.942959   492A      6.006676  
     493A      6.029760   494A      6.068335   495A      6.093251  
     496A      6.108092   497A      6.128716   498A      6.157888  
     499A      6.215424   500A      6.277899   501A      6.290258  
     502A      6.295898   503A      6.371926   504A      6.471849  
     505A      6.538848   506A      6.601882   507A      6.667796  
     508A      6.683353   509A      6.689067   510A      6.722195  
     511A      6.747627   512A      6.751099   513A      6.772865  
     514A      6.791133   515A      6.801976   516A      6.854172  
     517A      6.888315   518A      6.912774   519A      6.937301  
     520A      6.959811   521A      6.995670   522A      7.013418  
     523A      7.016384   524A      7.111649   525A      7.155060  
     526A      7.200505   527A      7.262904   528A      7.374247  
     529A      7.389951   530A      7.397269   531A      7.401580  
     532A      7.435573   533A      7.529943   534A      7.675326  
     535A      7.692047   536A      7.696552   537A      7.820716  
     538A      7.875305   539A      7.924244   540A      7.977642  
     541A      8.005753   542A      8.044573   543A      8.078238  
     544A     15.754365   545A     15.968943   546A     16.575993  
     547A     17.026149   548A     18.233188   549A     18.698079  
     550A     19.648530   551A     20.084149   552A     20.865697  

    Final Occupation by Irrep:
              A 
    DOCC [    33 ]

  @DF-RHF Final Energy:  -451.66112663274168

   => Energetics <=

    Nuclear Repulsion Energy =            441.6086525574302755
    One-Electron Energy =               -1491.1568696902302236
    Two-Electron Energy =                 597.8870905000582070
    Total Energy =                       -451.6611266327416843

Computation Completed

*** tstop() called on c445-024.stampede2.tacc.utexas.edu at Sat Mar 20 20:26:59 2021
Module time:
	user time   =     451.70 seconds =       7.53 minutes
	system time =      34.71 seconds =       0.58 minutes
	total time  =         25 seconds =       0.42 minutes
Total time:
	user time   =     451.70 seconds =       7.53 minutes
	system time =      34.71 seconds =       0.58 minutes
	total time  =         25 seconds =       0.42 minutes
   => Loading Basis Set <=

    Name: (AUG-CC-PVTZ AUX)
    Role: RIFIT
    Keyword: DF_BASIS_MP2
    atoms 1-2   entry O          line   264 file /home1/07844/xy3866/miniconda3/envs/p4env/share/psi4/basis/aug-cc-pvtz-ri.gbs 
    atoms 3-4   entry N          line   206 file /home1/07844/xy3866/miniconda3/envs/p4env/share/psi4/basis/aug-cc-pvtz-ri.gbs 
    atoms 5-9   entry C          line   148 file /home1/07844/xy3866/miniconda3/envs/p4env/share/psi4/basis/aug-cc-pvtz-ri.gbs 
    atoms 10-15 entry H          line    30 file /home1/07844/xy3866/miniconda3/envs/p4env/share/psi4/basis/aug-cc-pvtz-ri.gbs 


*** tstart() called on c445-024.stampede2.tacc.utexas.edu
*** at Sat Mar 20 20:27:00 2021


  //>>>>>>>>>>>>>>>>>>>>>>>>>>>>>>>>>>>//
  //               DFMP2               //
  //<<<<<<<<<<<<<<<<<<<<<<<<<<<<<<<<<<<//

	 --------------------------------------------------------
	                          DF-MP2                         
	      2nd-Order Density-Fitted Moller-Plesset Theory     
	              RMP2 Wavefunction,  32 Threads             
	                                                         
	        Rob Parrish, Justin Turney, Andy Simmonett,      
	           Ed Hohenstein, and C. David Sherrill          
	 --------------------------------------------------------

   => Auxiliary Basis Set <=

  Basis Set: (AUG-CC-PVTZ AUX)
    Blend: AUG-CC-PVTZ-RI
    Number of shells: 336
    Number of basis functions: 1230
    Number of Cartesian functions: 1554
    Spherical Harmonics?: true
    Max angular momentum: 4

	 --------------------------------------------------------
	                 NBF =   552, NAUX =  1230
	 --------------------------------------------------------
	   CLASS    FOCC     OCC    AOCC    AVIR     VIR    FVIR
	   PAIRS       0      33      33     519     519       0
	 --------------------------------------------------------

  DFHelper Memory: AOs need 2.788 GiB; user supplied 22.352 GiB. Using in-core AOs.


         ------------------------------------------------------------
                                     CPHF                           
                                  Rob Parrish                       
         ------------------------------------------------------------

  ==> Geometry <==

    Molecular point group: c1
    Full point group: C1

    Geometry (in Angstrom), charge = 0, multiplicity = 1:

       Center              X                  Y                   Z               Mass       
    ------------   -----------------  -----------------  -----------------  -----------------
         O           -1.487169511239    -1.765889049061     0.000000119094    15.994914619570
         O            2.855512488761    -0.265443049061     0.000000119094    15.994914619570
         N           -1.130577511239     0.504734950939     0.000000119094    14.003074004430
         N            0.672903488761    -0.962870049061    -0.000000880906    14.003074004430
         C           -0.703776511239    -0.821306049061     0.000000119094    12.000000000000
         C           -0.236200511239     1.551161950939     0.000000119094    12.000000000000
         C           -2.576664511239     0.715967950939     0.000000119094    12.000000000000
         C            1.106218488761     1.375759950939     0.000000119094    12.000000000000
         C            1.683629788761    -0.011507149061     0.000000119094    12.000000000000
         H           -0.685925511239     2.539530950939    -0.000000880906     1.007825032230
         H           -3.021071511239     0.260311950939    -0.886273880906     1.007825032230
         H           -2.766134511239     1.789309950939     0.000000119094     1.007825032230
         H           -3.021070511239     0.260310950939     0.886274119094     1.007825032230
         H            1.006509488761    -1.923774049061     0.000000119094     1.007825032230
         H            1.783982488761     2.219412950939     0.000000119094     1.007825032230

  Nuclear repulsion =  441.608652557430275
  Reference energy  = -451.661126632741684

  ==> Basis Set <==

  Basis Set: AUG-CC-PVTZ
    Blend: AUG-CC-PVTZ
    Number of shells: 180
    Number of basis functions: 552
    Number of Cartesian functions: 645
    Spherical Harmonics?: true
    Max angular momentum: 3

  ==> CGRSolver (by Rob Parrish) <==

   Number of roots    =         1
   Preconditioning    =    JACOBI
   Convergence cutoff =     1E-06
   Maximum iterations =       100

  ==> CPHFRHamiltonian (by Rob Parrish) <== 

  ==> MemDFJK: Density-Fitted J/K Matrices <==

    J tasked:                   Yes
    K tasked:                   Yes
    wK tasked:                   No
    OpenMP threads:              32
    Memory [MiB]:             22888
    Algorithm:                 Core
    Schwarz Cutoff:           1E-12
    Mask sparsity (%):       3.9566
    Fitting Condition:        1E-10

   => Auxiliary Basis Set <=

  Basis Set: (AUG-CC-PVTZ AUX)
    Blend: AUG-CC-PVTZ-JKFIT
    Number of shells: 354
    Number of basis functions: 1212
    Number of Cartesian functions: 1509
    Spherical Harmonics?: true
    Max angular momentum: 4

  ==> CPHF Iterations <==

  => Iterations <=

             Iter  Converged  Remaining    Residual
  CGR           1          0          1   1.388E-01
  CGR           2          0          1   4.353E-02
  CGR           3          0          1   1.670E-02
  CGR           4          0          1   4.030E-03
  CGR           5          0          1   1.429E-03
  CGR           6          0          1   6.242E-04
  CGR           7          0          1   2.291E-04
  CGR           8          0          1   8.897E-05
  CGR           9          0          1   3.048E-05
  CGR          10          0          1   9.911E-06
  CGR          11          0          1   4.035E-06
  CGR          12          0          1   1.164E-06
  CGR          13          1          0   5.346E-07

    CGRSolver converged.

	-----------------------------------------------------------
	 ==================> DF-MP2 Energies <==================== 
	-----------------------------------------------------------
	 Reference Energy          =    -451.6611266327416843 [Eh]
	 Singles Energy            =      -0.0000000000000000 [Eh]
	 Same-Spin Energy          =      -0.4570286845142291 [Eh]
	 Opposite-Spin Energy      =      -1.3831048024519177 [Eh]
	 Correlation Energy        =      -1.8401334869661468 [Eh]
	 Total Energy              =    -453.5012601197078084 [Eh]
	-----------------------------------------------------------
	 ================> DF-SCS-MP2 Energies <================== 
	-----------------------------------------------------------
	 SCS Same-Spin Scale       =       0.3333333333333333 [-]
	 SCS Opposite-Spin Scale   =       1.2000000000000000 [-]
	 SCS Same-Spin Energy      =      -0.1523428948380763 [Eh]
	 SCS Opposite-Spin Energy  =      -1.6597257629423012 [Eh]
	 SCS Correlation Energy    =      -1.8120686577803775 [Eh]
	 SCS Total Energy          =    -453.4731952905220851 [Eh]
	-----------------------------------------------------------



Properties will be evaluated at  -0.000000,  -0.000000,   0.000000 [a0]

Properties computed using the MP2 density matrix

  Nuclear Dipole Moment: [e a0]
     X:    -6.2766      Y:     4.8149      Z:    -0.0000

  Electronic Dipole Moment: [e a0]
     X:     5.1046      Y:    -3.5096      Z:     0.0000

  Dipole Moment: [e a0]
     X:    -1.1721      Y:     1.3053      Z:     0.0000     Total:     1.7543

  Dipole Moment: [D]
     X:    -2.9791      Y:     3.3179      Z:     0.0000     Total:     4.4591


*** tstop() called on c445-024.stampede2.tacc.utexas.edu at Sat Mar 20 20:29:29 2021
Module time:
	user time   =    1168.43 seconds =      19.47 minutes
	system time =      45.90 seconds =       0.77 minutes
	total time  =        149 seconds =       2.48 minutes
Total time:
	user time   =    1620.89 seconds =      27.01 minutes
	system time =      80.62 seconds =       1.34 minutes
	total time  =        175 seconds =       2.92 minutes

    Psi4 stopped on: Saturday, 20 March 2021 08:29PM
    Psi4 wall time for execution: 0:02:56.34

*** Psi4 exiting successfully. Buy a developer a beer!
