12465986                                                                
Freq      RMP2-FC                                                     6-31G(d)            
Number of atoms                            I               19
Info1-9                                    I   N=           9
          31          29        1002           0           0         100
           6           2           1
Charge                                     I                0
Multiplicity                               I                1
Number of electrons                        I               56
Number of alpha electrons                  I               28
Number of beta electrons                   I               28
Number of basis functions                  I              129
Number of independent functions            I              129
Number of point charges in /Mol/           I                0
Number of translation vectors              I                0
Atomic numbers                             I   N=          19
           8           6           6           6           6           6
           6           1           1           1           1           1
           1           1           1           1           1           1
           1
Nuclear charges                            R   N=          19
  8.00000000E+00  6.00000000E+00  6.00000000E+00  6.00000000E+00  6.00000000E+00
  6.00000000E+00  6.00000000E+00  1.00000000E+00  1.00000000E+00  1.00000000E+00
  1.00000000E+00  1.00000000E+00  1.00000000E+00  1.00000000E+00  1.00000000E+00
  1.00000000E+00  1.00000000E+00  1.00000000E+00  1.00000000E+00
Current cartesian coordinates              R   N=          57
  4.67395122E+00 -1.92378266E+00 -1.11876821E-01  2.95040555E+00  5.14368898E-02
  6.02228756E-01  4.23608086E-01 -3.58303193E-01 -6.07867986E-01 -4.28962519E+00
 -1.04663490E+00 -4.85341186E-01 -1.73535050E+00 -6.75489387E-01  6.82679966E-01
  4.18681598E+00  2.49980782E+00 -2.39353910E-01 -6.09354294E+00  1.12536023E+00
  1.51477555E-01  2.71420370E+00  7.53784488E-02  2.67167329E+00  4.17284352E-01
 -4.21235776E-01 -2.66997912E+00 -5.10841619E+00 -2.83023124E+00  1.87066999E-01
 -4.08850703E+00 -1.21734082E+00 -2.53970814E+00 -1.67464621E+00 -6.10219450E-01
  2.74575203E+00  4.41215301E+00  2.49419580E+00 -2.29300829E+00  3.02847305E+00
  4.12055129E+00  3.07331702E-01  6.05498333E+00  2.67752079E+00  6.23225322E-01
 -5.35306569E+00  2.91456026E+00 -5.69197460E-01 -6.33071456E+00  1.31209450E+00
  2.19702499E+00 -7.95975180E+00  8.11830467E-01 -6.80676775E-01  3.84252839E+00
 -3.51390778E+00  2.92570855E-01
Force Field                                I                0
Int Atom Types                             I   N=          19
           0           0           0           0           0           0
           0           0           0           0           0           0
           0           0           0           0           0           0
           0
MM charges                                 R   N=          19
  0.00000000E+00  0.00000000E+00  0.00000000E+00  0.00000000E+00  0.00000000E+00
  0.00000000E+00  0.00000000E+00  0.00000000E+00  0.00000000E+00  0.00000000E+00
  0.00000000E+00  0.00000000E+00  0.00000000E+00  0.00000000E+00  0.00000000E+00
  0.00000000E+00  0.00000000E+00  0.00000000E+00  0.00000000E+00
Integer atomic weights                     I   N=          19
          16          12          12          12          12          12
          12           1           1           1           1           1
           1           1           1           1           1           1
           1
Real atomic weights                        R   N=          19
  1.59949146E+01  1.20000000E+01  1.20000000E+01  1.20000000E+01  1.20000000E+01
  1.20000000E+01  1.20000000E+01  1.00782504E+00  1.00782504E+00  1.00782504E+00
  1.00782504E+00  1.00782504E+00  1.00782504E+00  1.00782504E+00  1.00782504E+00
  1.00782504E+00  1.00782504E+00  1.00782504E+00  1.00782504E+00
Atom fragment info                         I   N=          19
           0           0           0           0           0           0
           0           0           0           0           0           0
           0           0           0           0           0           0
           0
Atom residue num                           I   N=          19
           0           0           0           0           0           0
           0           0           0           0           0           0
           0           0           0           0           0           0
           0
Nuclear spins                              I   N=          19
           0           0           0           0           0           0
           0           1           1           1           1           1
           1           1           1           1           1           1
           1
Nuclear ZEff                               R   N=          19
 -5.60000000E+00 -3.60000000E+00 -3.60000000E+00 -3.60000000E+00 -3.60000000E+00
 -3.60000000E+00 -3.60000000E+00 -1.00000000E+00 -1.00000000E+00 -1.00000000E+00
 -1.00000000E+00 -1.00000000E+00 -1.00000000E+00 -1.00000000E+00 -1.00000000E+00
 -1.00000000E+00 -1.00000000E+00 -1.00000000E+00 -1.00000000E+00
Nuclear QMom                               R   N=          19
  0.00000000E+00  0.00000000E+00  0.00000000E+00  0.00000000E+00  0.00000000E+00
  0.00000000E+00  0.00000000E+00  0.00000000E+00  0.00000000E+00  0.00000000E+00
  0.00000000E+00  0.00000000E+00  0.00000000E+00  0.00000000E+00  0.00000000E+00
  0.00000000E+00  0.00000000E+00  0.00000000E+00  0.00000000E+00
Nuclear GFac                               R   N=          19
  0.00000000E+00  0.00000000E+00  0.00000000E+00  0.00000000E+00  0.00000000E+00
  0.00000000E+00  0.00000000E+00  2.79284600E+00  2.79284600E+00  2.79284600E+00
  2.79284600E+00  2.79284600E+00  2.79284600E+00  2.79284600E+00  2.79284600E+00
  2.79284600E+00  2.79284600E+00  2.79284600E+00  2.79284600E+00
MicOpt                                     I   N=          19
          -1          -1          -1          -1          -1          -1
          -1          -1          -1          -1          -1          -1
          -1          -1          -1          -1          -1          -1
          -1
Number of contracted shells                I               52
Number of primitive shells                 I              125
Pure/Cartesian d shells                    I                1
Pure/Cartesian f shells                    I                0
Highest angular momentum                   I                2
Largest degree of contraction              I                6
Shell types                                I   N=          52
           0          -1          -1           2           0          -1
          -1           2           0          -1          -1           2
           0          -1          -1           2           0          -1
          -1           2           0          -1          -1           2
           0          -1          -1           2           0           0
           0           0           0           0           0           0
           0           0           0           0           0           0
           0           0           0           0           0           0
           0           0           0           0
Number of primitives per shell             I   N=          52
           6           3           1           1           6           3
           1           1           6           3           1           1
           6           3           1           1           6           3
           1           1           6           3           1           1
           6           3           1           1           3           1
           3           1           3           1           3           1
           3           1           3           1           3           1
           3           1           3           1           3           1
           3           1           3           1
Shell to atom map                          I   N=          52
           1           1           1           1           2           2
           2           2           3           3           3           3
           4           4           4           4           5           5
           5           5           6           6           6           6
           7           7           7           7           8           8
           9           9          10          10          11          11
          12          12          13          13          14          14
          15          15          16          16          17          17
          18          18          19          19
Primitive exponents                        R   N=         125
  5.48467166E+03  8.25234946E+02  1.88046958E+02  5.29645000E+01  1.68975704E+01
  5.79963534E+00  1.55396162E+01  3.59993359E+00  1.01376175E+00  2.70005823E-01
  8.00000000E-01  3.04752488E+03  4.57369518E+02  1.03948685E+02  2.92101553E+01
  9.28666296E+00  3.16392696E+00  7.86827235E+00  1.88128854E+00  5.44249258E-01
  1.68714478E-01  8.00000000E-01  3.04752488E+03  4.57369518E+02  1.03948685E+02
  2.92101553E+01  9.28666296E+00  3.16392696E+00  7.86827235E+00  1.88128854E+00
  5.44249258E-01  1.68714478E-01  8.00000000E-01  3.04752488E+03  4.57369518E+02
  1.03948685E+02  2.92101553E+01  9.28666296E+00  3.16392696E+00  7.86827235E+00
  1.88128854E+00  5.44249258E-01  1.68714478E-01  8.00000000E-01  3.04752488E+03
  4.57369518E+02  1.03948685E+02  2.92101553E+01  9.28666296E+00  3.16392696E+00
  7.86827235E+00  1.88128854E+00  5.44249258E-01  1.68714478E-01  8.00000000E-01
  3.04752488E+03  4.57369518E+02  1.03948685E+02  2.92101553E+01  9.28666296E+00
  3.16392696E+00  7.86827235E+00  1.88128854E+00  5.44249258E-01  1.68714478E-01
  8.00000000E-01  3.04752488E+03  4.57369518E+02  1.03948685E+02  2.92101553E+01
  9.28666296E+00  3.16392696E+00  7.86827235E+00  1.88128854E+00  5.44249258E-01
  1.68714478E-01  8.00000000E-01  1.87311370E+01  2.82539436E+00  6.40121692E-01
  1.61277759E-01  1.87311370E+01  2.82539436E+00  6.40121692E-01  1.61277759E-01
  1.87311370E+01  2.82539436E+00  6.40121692E-01  1.61277759E-01  1.87311370E+01
  2.82539436E+00  6.40121692E-01  1.61277759E-01  1.87311370E+01  2.82539436E+00
  6.40121692E-01  1.61277759E-01  1.87311370E+01  2.82539436E+00  6.40121692E-01
  1.61277759E-01  1.87311370E+01  2.82539436E+00  6.40121692E-01  1.61277759E-01
  1.87311370E+01  2.82539436E+00  6.40121692E-01  1.61277759E-01  1.87311370E+01
  2.82539436E+00  6.40121692E-01  1.61277759E-01  1.87311370E+01  2.82539436E+00
  6.40121692E-01  1.61277759E-01  1.87311370E+01  2.82539436E+00  6.40121692E-01
  1.61277759E-01  1.87311370E+01  2.82539436E+00  6.40121692E-01  1.61277759E-01
Contraction coefficients                   R   N=         125
  1.83107443E-03  1.39501722E-02  6.84450781E-02  2.32714336E-01  4.70192898E-01
  3.58520853E-01 -1.10777550E-01 -1.48026263E-01  1.13076702E+00  1.00000000E+00
  1.00000000E+00  1.83473713E-03  1.40373228E-02  6.88426223E-02  2.32184443E-01
  4.67941348E-01  3.62311985E-01 -1.19332420E-01 -1.60854152E-01  1.14345644E+00
  1.00000000E+00  1.00000000E+00  1.83473713E-03  1.40373228E-02  6.88426223E-02
  2.32184443E-01  4.67941348E-01  3.62311985E-01 -1.19332420E-01 -1.60854152E-01
  1.14345644E+00  1.00000000E+00  1.00000000E+00  1.83473713E-03  1.40373228E-02
  6.88426223E-02  2.32184443E-01  4.67941348E-01  3.62311985E-01 -1.19332420E-01
 -1.60854152E-01  1.14345644E+00  1.00000000E+00  1.00000000E+00  1.83473713E-03
  1.40373228E-02  6.88426223E-02  2.32184443E-01  4.67941348E-01  3.62311985E-01
 -1.19332420E-01 -1.60854152E-01  1.14345644E+00  1.00000000E+00  1.00000000E+00
  1.83473713E-03  1.40373228E-02  6.88426223E-02  2.32184443E-01  4.67941348E-01
  3.62311985E-01 -1.19332420E-01 -1.60854152E-01  1.14345644E+00  1.00000000E+00
  1.00000000E+00  1.83473713E-03  1.40373228E-02  6.88426223E-02  2.32184443E-01
  4.67941348E-01  3.62311985E-01 -1.19332420E-01 -1.60854152E-01  1.14345644E+00
  1.00000000E+00  1.00000000E+00  3.34946043E-02  2.34726953E-01  8.13757326E-01
  1.00000000E+00  3.34946043E-02  2.34726953E-01  8.13757326E-01  1.00000000E+00
  3.34946043E-02  2.34726953E-01  8.13757326E-01  1.00000000E+00  3.34946043E-02
  2.34726953E-01  8.13757326E-01  1.00000000E+00  3.34946043E-02  2.34726953E-01
  8.13757326E-01  1.00000000E+00  3.34946043E-02  2.34726953E-01  8.13757326E-01
  1.00000000E+00  3.34946043E-02  2.34726953E-01  8.13757326E-01  1.00000000E+00
  3.34946043E-02  2.34726953E-01  8.13757326E-01  1.00000000E+00  3.34946043E-02
  2.34726953E-01  8.13757326E-01  1.00000000E+00  3.34946043E-02  2.34726953E-01
  8.13757326E-01  1.00000000E+00  3.34946043E-02  2.34726953E-01  8.13757326E-01
  1.00000000E+00  3.34946043E-02  2.34726953E-01  8.13757326E-01  1.00000000E+00
P(S=P) Contraction coefficients            R   N=         125
  0.00000000E+00  0.00000000E+00  0.00000000E+00  0.00000000E+00  0.00000000E+00
  0.00000000E+00  7.08742682E-02  3.39752839E-01  7.27158577E-01  1.00000000E+00
  0.00000000E+00  0.00000000E+00  0.00000000E+00  0.00000000E+00  0.00000000E+00
  0.00000000E+00  0.00000000E+00  6.89990666E-02  3.16423961E-01  7.44308291E-01
  1.00000000E+00  0.00000000E+00  0.00000000E+00  0.00000000E+00  0.00000000E+00
  0.00000000E+00  0.00000000E+00  0.00000000E+00  6.89990666E-02  3.16423961E-01
  7.44308291E-01  1.00000000E+00  0.00000000E+00  0.00000000E+00  0.00000000E+00
  0.00000000E+00  0.00000000E+00  0.00000000E+00  0.00000000E+00  6.89990666E-02
  3.16423961E-01  7.44308291E-01  1.00000000E+00  0.00000000E+00  0.00000000E+00
  0.00000000E+00  0.00000000E+00  0.00000000E+00  0.00000000E+00  0.00000000E+00
  6.89990666E-02  3.16423961E-01  7.44308291E-01  1.00000000E+00  0.00000000E+00
  0.00000000E+00  0.00000000E+00  0.00000000E+00  0.00000000E+00  0.00000000E+00
  0.00000000E+00  6.89990666E-02  3.16423961E-01  7.44308291E-01  1.00000000E+00
  0.00000000E+00  0.00000000E+00  0.00000000E+00  0.00000000E+00  0.00000000E+00
  0.00000000E+00  0.00000000E+00  6.89990666E-02  3.16423961E-01  7.44308291E-01
  1.00000000E+00  0.00000000E+00  0.00000000E+00  0.00000000E+00  0.00000000E+00
  0.00000000E+00  0.00000000E+00  0.00000000E+00  0.00000000E+00  0.00000000E+00
  0.00000000E+00  0.00000000E+00  0.00000000E+00  0.00000000E+00  0.00000000E+00
  0.00000000E+00  0.00000000E+00  0.00000000E+00  0.00000000E+00  0.00000000E+00
  0.00000000E+00  0.00000000E+00  0.00000000E+00  0.00000000E+00  0.00000000E+00
  0.00000000E+00  0.00000000E+00  0.00000000E+00  0.00000000E+00  0.00000000E+00
  0.00000000E+00  0.00000000E+00  0.00000000E+00  0.00000000E+00  0.00000000E+00
  0.00000000E+00  0.00000000E+00  0.00000000E+00  0.00000000E+00  0.00000000E+00
  0.00000000E+00  0.00000000E+00  0.00000000E+00  0.00000000E+00  0.00000000E+00
  0.00000000E+00  0.00000000E+00  0.00000000E+00  0.00000000E+00  0.00000000E+00
Coordinates of each shell                  R   N=         156
  4.67395122E+00 -1.92378266E+00 -1.11876821E-01  4.67395122E+00 -1.92378266E+00
 -1.11876821E-01  4.67395122E+00 -1.92378266E+00 -1.11876821E-01  4.67395122E+00
 -1.92378266E+00 -1.11876821E-01  2.95040555E+00  5.14368898E-02  6.02228756E-01
  2.95040555E+00  5.14368898E-02  6.02228756E-01  2.95040555E+00  5.14368898E-02
  6.02228756E-01  2.95040555E+00  5.14368898E-02  6.02228756E-01  4.23608086E-01
 -3.58303193E-01 -6.07867986E-01  4.23608086E-01 -3.58303193E-01 -6.07867986E-01
  4.23608086E-01 -3.58303193E-01 -6.07867986E-01  4.23608086E-01 -3.58303193E-01
 -6.07867986E-01 -4.28962519E+00 -1.04663490E+00 -4.85341186E-01 -4.28962519E+00
 -1.04663490E+00 -4.85341186E-01 -4.28962519E+00 -1.04663490E+00 -4.85341186E-01
 -4.28962519E+00 -1.04663490E+00 -4.85341186E-01 -1.73535050E+00 -6.75489387E-01
  6.82679966E-01 -1.73535050E+00 -6.75489387E-01  6.82679966E-01 -1.73535050E+00
 -6.75489387E-01  6.82679966E-01 -1.73535050E+00 -6.75489387E-01  6.82679966E-01
  4.18681598E+00  2.49980782E+00 -2.39353910E-01  4.18681598E+00  2.49980782E+00
 -2.39353910E-01  4.18681598E+00  2.49980782E+00 -2.39353910E-01  4.18681598E+00
  2.49980782E+00 -2.39353910E-01 -6.09354294E+00  1.12536023E+00  1.51477555E-01
 -6.09354294E+00  1.12536023E+00  1.51477555E-01 -6.09354294E+00  1.12536023E+00
  1.51477555E-01 -6.09354294E+00  1.12536023E+00  1.51477555E-01  2.71420370E+00
  7.53784488E-02  2.67167329E+00  2.71420370E+00  7.53784488E-02  2.67167329E+00
  4.17284352E-01 -4.21235776E-01 -2.66997912E+00  4.17284352E-01 -4.21235776E-01
 -2.66997912E+00 -5.10841619E+00 -2.83023124E+00  1.87066999E-01 -5.10841619E+00
 -2.83023124E+00  1.87066999E-01 -4.08850703E+00 -1.21734082E+00 -2.53970814E+00
 -4.08850703E+00 -1.21734082E+00 -2.53970814E+00 -1.67464621E+00 -6.10219450E-01
  2.74575203E+00 -1.67464621E+00 -6.10219450E-01  2.74575203E+00  4.41215301E+00
  2.49419580E+00 -2.29300829E+00  4.41215301E+00  2.49419580E+00 -2.29300829E+00
  3.02847305E+00  4.12055129E+00  3.07331702E-01  3.02847305E+00  4.12055129E+00
  3.07331702E-01  6.05498333E+00  2.67752079E+00  6.23225322E-01  6.05498333E+00
  2.67752079E+00  6.23225322E-01 -5.35306569E+00  2.91456026E+00 -5.69197460E-01
 -5.35306569E+00  2.91456026E+00 -5.69197460E-01 -6.33071456E+00  1.31209450E+00
  2.19702499E+00 -6.33071456E+00  1.31209450E+00  2.19702499E+00 -7.95975180E+00
  8.11830467E-01 -6.80676775E-01 -7.95975180E+00  8.11830467E-01 -6.80676775E-01
  3.84252839E+00 -3.51390778E+00  2.92570855E-01  3.84252839E+00 -3.51390778E+00
  2.92570855E-01
Constraint Structure                       R   N=          57
  4.67395122E+00 -1.92378266E+00 -1.11876821E-01  2.95040555E+00  5.14368898E-02
  6.02228756E-01  4.23608086E-01 -3.58303193E-01 -6.07867986E-01 -4.28962519E+00
 -1.04663490E+00 -4.85341186E-01 -1.73535050E+00 -6.75489387E-01  6.82679966E-01
  4.18681598E+00  2.49980782E+00 -2.39353910E-01 -6.09354294E+00  1.12536023E+00
  1.51477555E-01  2.71420370E+00  7.53784488E-02  2.67167329E+00  4.17284352E-01
 -4.21235776E-01 -2.66997912E+00 -5.10841619E+00 -2.83023124E+00  1.87066999E-01
 -4.08850703E+00 -1.21734082E+00 -2.53970814E+00 -1.67464621E+00 -6.10219450E-01
  2.74575203E+00  4.41215301E+00  2.49419580E+00 -2.29300829E+00  3.02847305E+00
  4.12055129E+00  3.07331702E-01  6.05498333E+00  2.67752079E+00  6.23225322E-01
 -5.35306569E+00  2.91456026E+00 -5.69197460E-01 -6.33071456E+00  1.31209450E+00
  2.19702499E+00 -7.95975180E+00  8.11830467E-01 -6.80676775E-01  3.84252839E+00
 -3.51390778E+00  2.92570855E-01
Num ILSW                                   I              100
ILSW                                       I   N=         100
           0           1           0           0           2           0
           0           0           0           0           0          -1
           0           0           0           0           0           0
           0           0           0           0           1           0
           1           0           0           0           0           0
           0           0      100000           0          -1           0
           0           0           0           0           0           0
           0           0           0           1           1           0
           0           0           1           0           0           0
           0           0           4          40           0           0
           0           0           0           0           0           0
           0           0           0           0           0           0
           0           0           0           0           0           0
           0           0           0           0           0           0
           0           0           0           0           0           0
           0           0           0           0           0           0
           0           0           0           0
Num RLSW                                   I               40
RLSW                                       R   N=          40
  1.00000000E+00  1.00000000E+00  1.00000000E+00  1.00000000E+00  1.00000000E+00
  0.00000000E+00  0.00000000E+00  1.00000000E+00  0.00000000E+00  0.00000000E+00
  0.00000000E+00  0.00000000E+00  1.00000000E+00  0.00000000E+00  0.00000000E+00
  0.00000000E+00  0.00000000E+00  1.00000000E+00  0.00000000E+00  0.00000000E+00
  0.00000000E+00  0.00000000E+00  1.00000000E+00  0.00000000E+00  0.00000000E+00
  0.00000000E+00  0.00000000E+00  1.00000000E+00  0.00000000E+00  0.00000000E+00
  0.00000000E+00  0.00000000E+00  0.00000000E+00  0.00000000E+00  0.00000000E+00
  0.00000000E+00  0.00000000E+00  0.00000000E+00  1.00000000E+00  1.00000000E+00
MxBond                                     I                4
NBond                                      I   N=          19
           2           4           3           4           3           4
           4           1           1           1           1           1
           1           1           1           1           1           1
           1
IBond                                      I   N=          76
           2          19           0           0           1           3
           6           8           2           5           9           0
           5           7          10          11           3           4
          12           0           2          13          14          15
           4          16          17          18           2           0
           0           0           3           0           0           0
           4           0           0           0           4           0
           0           0           5           0           0           0
           6           0           0           0           6           0
           0           0           6           0           0           0
           7           0           0           0           7           0
           0           0           7           0           0           0
           1           0           0           0
RBond                                      R   N=          76
  1.00000000E+00  1.00000000E+00  0.00000000E+00  0.00000000E+00  1.00000000E+00
  1.00000000E+00  1.00000000E+00  1.00000000E+00  1.00000000E+00  2.00000000E+00
  1.00000000E+00  0.00000000E+00  1.00000000E+00  1.00000000E+00  1.00000000E+00
  1.00000000E+00  2.00000000E+00  1.00000000E+00  1.00000000E+00  0.00000000E+00
  1.00000000E+00  1.00000000E+00  1.00000000E+00  1.00000000E+00  1.00000000E+00
  1.00000000E+00  1.00000000E+00  1.00000000E+00  1.00000000E+00  0.00000000E+00
  0.00000000E+00  0.00000000E+00  1.00000000E+00  0.00000000E+00  0.00000000E+00
  0.00000000E+00  1.00000000E+00  0.00000000E+00  0.00000000E+00  0.00000000E+00
  1.00000000E+00  0.00000000E+00  0.00000000E+00  0.00000000E+00  1.00000000E+00
  0.00000000E+00  0.00000000E+00  0.00000000E+00  1.00000000E+00  0.00000000E+00
  0.00000000E+00  0.00000000E+00  1.00000000E+00  0.00000000E+00  0.00000000E+00
  0.00000000E+00  1.00000000E+00  0.00000000E+00  0.00000000E+00  0.00000000E+00
  1.00000000E+00  0.00000000E+00  0.00000000E+00  0.00000000E+00  1.00000000E+00
  0.00000000E+00  0.00000000E+00  0.00000000E+00  1.00000000E+00  0.00000000E+00
  0.00000000E+00  0.00000000E+00  1.00000000E+00  0.00000000E+00  0.00000000E+00
  0.00000000E+00
Virial Ratio                               R      2.001773991556471E+00
SCF Energy                                 R     -3.090291272399046E+02
MP2 Energy                                 R     -3.099872638848008E+02
Total Energy                               R     -3.099872638848008E+02
Post-SCF wavefunction norm                 R      1.621688318979941E+00
RMS Force                                  R      3.243199502788023E-07
RMS Density                                R      1.730962589121227E-09
External E-field                           R   N=          35
  0.00000000E+00  0.00000000E+00  0.00000000E+00  0.00000000E+00  0.00000000E+00
  0.00000000E+00  0.00000000E+00  0.00000000E+00  0.00000000E+00  0.00000000E+00
  0.00000000E+00  0.00000000E+00  0.00000000E+00  0.00000000E+00  0.00000000E+00
  0.00000000E+00  0.00000000E+00  0.00000000E+00  0.00000000E+00  0.00000000E+00
  0.00000000E+00  0.00000000E+00  0.00000000E+00  0.00000000E+00  0.00000000E+00
  0.00000000E+00  0.00000000E+00  0.00000000E+00  0.00000000E+00  0.00000000E+00
  0.00000000E+00  0.00000000E+00  0.00000000E+00  0.00000000E+00  0.00000000E+00
IOpCl                                      I                0
IROHF                                      I                0
Alpha Orbital Energies                     R   N=         129
 -2.05536068E+01 -1.12797191E+01 -1.12363935E+01 -1.12307115E+01 -1.12257768E+01
 -1.12200981E+01 -1.12103041E+01 -1.34572284E+00 -1.09154553E+00 -1.03253841E+00
 -9.72405742E-01 -8.71473075E-01 -8.04963005E-01 -7.58072593E-01 -6.87541902E-01
 -6.50729994E-01 -6.08468369E-01 -5.92716454E-01 -5.72501808E-01 -5.36906702E-01
 -5.34188471E-01 -5.25619262E-01 -5.18844587E-01 -5.07491759E-01 -4.86229157E-01
 -4.67208808E-01 -4.34871102E-01 -3.52316279E-01  1.70029530E-01  2.39205202E-01
  2.46298321E-01  2.54395327E-01  2.81669302E-01  2.93461868E-01  3.06582297E-01
  3.16239398E-01  3.25803760E-01  3.29294356E-01  3.36659079E-01  3.46735150E-01
  3.50889435E-01  3.92402964E-01  4.13753032E-01  4.25319477E-01  4.63755577E-01
  5.04261599E-01  5.97149809E-01  7.05863558E-01  7.19101894E-01  7.27254959E-01
  7.46141678E-01  7.77775730E-01  7.81939176E-01  8.10217635E-01  8.32438207E-01
  8.46017459E-01  9.05050219E-01  9.15988531E-01  9.45733239E-01  9.82662402E-01
  1.00097412E+00  1.04196073E+00  1.06226698E+00  1.09286352E+00  1.10246327E+00
  1.12750206E+00  1.12987832E+00  1.14026016E+00  1.16392856E+00  1.17006068E+00
  1.17739992E+00  1.19375109E+00  1.20770483E+00  1.21455419E+00  1.23833736E+00
  1.24294010E+00  1.25208568E+00  1.28069890E+00  1.30405459E+00  1.36373705E+00
  1.39394486E+00  1.50562822E+00  1.53841517E+00  1.59366641E+00  1.61286755E+00
  1.69094771E+00  1.72040647E+00  1.74988911E+00  1.87743167E+00  1.89172261E+00
  1.91725137E+00  2.00084636E+00  2.03510675E+00  2.07586927E+00  2.10938657E+00
  2.14070860E+00  2.17969563E+00  2.24172628E+00  2.26296212E+00  2.28503294E+00
  2.32461283E+00  2.35985544E+00  2.37190382E+00  2.43008239E+00  2.48516651E+00
  2.54657777E+00  2.56490525E+00  2.57669031E+00  2.60776085E+00  2.61904686E+00
  2.68885459E+00  2.74765519E+00  2.77069436E+00  2.77250849E+00  2.88462478E+00
  2.90223847E+00  2.93742113E+00  2.96708531E+00  3.09700786E+00  3.23092826E+00
  3.25547852E+00  3.33367562E+00  4.16250046E+00  4.55771844E+00  4.63057389E+00
  4.67394743E+00  4.82353240E+00  4.88836229E+00  4.95903666E+00
Alpha MO coefficients                      R   N=       16641
  9.94668702E-01  2.11658870E-02 -1.14052263E-03 -2.35490192E-04  5.19363250E-04
  3.70976395E-03  6.32506440E-04  1.06001406E-04 -2.73748908E-04 -4.03762131E-03
 -4.16681868E-03 -3.87006471E-03  6.33671977E-05  1.04573914E-04 -1.56574859E-05
 -3.43944341E-05  1.29955523E-04  2.39906974E-04 -2.34893900E-04 -9.98411387E-05
  5.52692772E-04 -2.02514565E-04 -1.73511455E-04 -3.59979191E-05  5.15743721E-06
  2.50620569E-05 -5.92335123E-05 -6.57796178E-05 -1.67694946E-05  3.73706749E-05
 -4.87427166E-06  3.62434886E-05 -3.84266799E-05  2.00608652E-05 -4.81000953E-06
 -1.49338519E-04 -1.47449230E-04 -1.76414883E-05 -1.28813023E-04 -7.82108221E-05
 -2.13836835E-05 -3.57739627E-05  1.83901370E-05 -4.82060969E-06  5.93837876E-06
  4.00582426E-06  1.80774261E-05  4.05006204E-07  2.15353614E-06 -1.24988218E-06
 -1.11606078E-04 -3.77780156E-05 -2.58396692E-05 -1.12664283E-05  5.67013950E-07
  7.76601054E-06  4.81129351E-06 -8.47761182E-07 -2.38350989E-06 -1.55337358E-06
  2.03407270E-06  7.24753959E-07  1.98510804E-05  4.71500101E-06 -3.95238669E-06
  1.58803990E-05 -6.36495842E-05  4.64976770E-06  1.25339259E-06  1.78454537E-05
  8.53996666E-06  6.62709772E-06  5.03808166E-06 -3.42864911E-06 -3.43344270E-06
  7.30422669E-06  7.95042131E-05  1.87222825E-05 -1.28268638E-05 -1.41529015E-05
 -5.83672340E-05 -1.15838357E-04  2.63423400E-04  1.03122422E-04  7.25157390E-06
 -5.84245344E-05 -5.70581908E-06 -6.31718575E-07 -1.17070689E-05  5.22811436E-07
 -3.63562023E-07 -2.41499319E-06  2.42244692E-06 -1.38677710E-06  8.42418913E-07
  2.99532741E-05  7.27069131E-06 -2.85066418E-06 -7.69010596E-06  1.10433029E-06
 -8.36139354E-07 -5.62570341E-07 -3.97554427E-07 -1.13361783E-06 -6.87158038E-07
 -5.10481564E-05 -8.31276842E-05  7.01119346E-06 -8.64346600E-05  1.29890709E-06
 -8.01859945E-07  5.58915510E-06  5.29841440E-06  3.27533701E-06  5.78614512E-07
  4.70163408E-05  2.04327095E-05 -1.67857329E-05 -1.54897889E-04  4.54242151E-05
 -2.87838696E-05 -1.86486362E-06 -3.31195577E-06  2.58650413E-07 -7.90192149E-07
 -6.35028749E-07 -6.56375658E-06  4.24266459E-04 -2.09642306E-04 -2.05007500E-04
 -1.80734059E-04 -8.14899507E-05  6.60985252E-05  4.81272321E-05  3.53720134E-03
 -4.72323852E-04  5.98939135E-04 -6.36290625E-05 -4.62795655E-04 -5.82079562E-04
 -1.83378487E-04  3.50727468E-04  1.74346231E-04 -2.21595193E-04  9.96044472E-01
  2.79983565E-02  3.24066842E-04 -4.60460991E-04 -4.19273376E-04 -1.96676900E-02
  4.70934042E-04 -6.12645709E-04  2.37764277E-03 -1.22711235E-03 -1.23009809E-03
 -1.17198052E-03 -2.87494779E-05 -3.81638108E-05  1.60321686E-06  6.21280787E-03
  2.17213185E-04  2.72141984E-05  5.39918939E-05  8.85671182E-06  4.19130220E-03
  3.79004205E-03  4.74095849E-04  4.88113018E-04 -3.30891229E-04 -1.51599513E-04
 -1.48088882E-04 -1.72270756E-05 -1.29274672E-04  6.62767989E-06 -2.85538825E-05
 -1.29176402E-04 -4.49915339E-05 -1.37887050E-05 -1.09608662E-05  6.01270112E-04
  3.37286437E-04  1.37097598E-04  2.26211809E-04 -1.17391729E-05 -6.65998426E-05
 -3.32293679E-05  6.09079012E-06  1.26873377E-05  6.28524790E-06 -8.69765522E-05
 -1.82798587E-04 -5.89641917E-05 -2.89137343E-05 -3.15699116E-05  1.26312022E-03