19215                                                                   
Freq      RMP2-FC                                                     6-31G(d)            
Number of atoms                            I               11
Info1-9                                    I   N=           9
          23          21        1002           0           0         100
           6           2           1
Charge                                     I                0
Multiplicity                               I                1
Number of electrons                        I              122
Number of alpha electrons                  I               61
Number of beta electrons                   I               61
Number of basis functions                  I              163
Number of independent functions            I              163
Number of point charges in /Mol/           I                0
Number of translation vectors              I                0
Atomic numbers                             I   N=          11
          17          17          17          17          17          17
           6           6           6           1           1
Nuclear charges                            R   N=          11
  1.70000000E+01  1.70000000E+01  1.70000000E+01  1.70000000E+01  1.70000000E+01
  1.70000000E+01  6.00000000E+00  6.00000000E+00  6.00000000E+00  1.00000000E+00
  1.00000000E+00
Current cartesian coordinates              R   N=          33
  4.84893290E+00 -8.26004526E-01  2.59877577E+00  3.32160157E+00  3.03414452E+00
 -9.19739190E-01  2.70894615E+00 -2.23846845E+00 -2.23052392E+00 -3.32159326E+00
 -3.03414250E+00 -9.19748470E-01 -4.84893474E+00  8.25993824E-01  2.59877762E+00
 -2.70895267E+00  2.23847630E+00 -2.23051677E+00  1.19776986E-06  1.41818190E-06
  1.65618966E+00  2.54717667E+00 -1.56356173E-02  2.55410039E-01 -2.54717838E+00
  1.56360688E-02  2.55416545E-01  5.07706733E-02  1.66662658E+00  2.87423860E+00
 -5.07665194E-02 -1.66662350E+00  2.87423808E+00
Force Field                                I                0
Int Atom Types                             I   N=          11
           0           0           0           0           0           0
           0           0           0           0           0
MM charges                                 R   N=          11
  0.00000000E+00  0.00000000E+00  0.00000000E+00  0.00000000E+00  0.00000000E+00
  0.00000000E+00  0.00000000E+00  0.00000000E+00  0.00000000E+00  0.00000000E+00
  0.00000000E+00
Integer atomic weights                     I   N=          11
          35          35          35          35          35          35
          12          12          12           1           1
Real atomic weights                        R   N=          11
  3.49688527E+01  3.49688527E+01  3.49688527E+01  3.49688527E+01  3.49688527E+01
  3.49688527E+01  1.20000000E+01  1.20000000E+01  1.20000000E+01  1.00782504E+00
  1.00782504E+00
Atom fragment info                         I   N=          11
           0           0           0           0           0           0
           0           0           0           0           0
Atom residue num                           I   N=          11
           0           0           0           0           0           0
           0           0           0           0           0
Nuclear spins                              I   N=          11
           3           3           3           3           3           3
           0           0           0           1           1
Nuclear ZEff                               R   N=          11
 -1.42400000E+01 -1.42400000E+01 -1.42400000E+01 -1.42400000E+01 -1.42400000E+01
 -1.42400000E+01 -3.60000000E+00 -3.60000000E+00 -3.60000000E+00 -1.00000000E+00
 -1.00000000E+00
Nuclear QMom                               R   N=          11
 -8.16500000E+00 -8.16500000E+00 -8.16500000E+00 -8.16500000E+00 -8.16500000E+00
 -8.16500000E+00  0.00000000E+00  0.00000000E+00  0.00000000E+00  0.00000000E+00
  0.00000000E+00
Nuclear GFac                               R   N=          11
  8.21874000E-01  8.21874000E-01  8.21874000E-01  8.21874000E-01  8.21874000E-01
  8.21874000E-01  0.00000000E+00  0.00000000E+00  0.00000000E+00  2.79284600E+00
  2.79284600E+00
MicOpt                                     I   N=          11
          -1          -1          -1          -1          -1          -1
          -1          -1          -1          -1          -1
Number of contracted shells                I               46
Number of primitive shells                 I              143
Pure/Cartesian d shells                    I                1
Pure/Cartesian f shells                    I                0
Highest angular momentum                   I                2
Largest degree of contraction              I                6
Shell types                                I   N=          46
           0          -1          -1          -1           2           0
          -1          -1          -1           2           0          -1
          -1          -1           2           0          -1          -1
          -1           2           0          -1          -1          -1
           2           0          -1          -1          -1           2
           0          -1          -1           2           0          -1
          -1           2           0          -1          -1           2
           0           0           0           0
Number of primitives per shell             I   N=          46
           6           6           3           1           1           6
           6           3           1           1           6           6
           3           1           1           6           6           3
           1           1           6           6           3           1
           1           6           6           3           1           1
           6           3           1           1           6           3
           1           1           6           3           1           1
           3           1           3           1
Shell to atom map                          I   N=          46
           1           1           1           1           1           2
           2           2           2           2           3           3
           3           3           3           4           4           4
           4           4           5           5           5           5
           5           6           6           6           6           6
           7           7           7           7           8           8
           8           8           9           9           9           9
          10          10          11          11
Primitive exponents                        R   N=         143
  2.51801000E+04  3.78035000E+03  8.60474000E+02  2.42145000E+02  7.73349000E+01
  2.62470000E+01  4.91765000E+02  1.16984000E+02  3.74153000E+01  1.37834000E+01
  5.45215000E+00  2.22588000E+00  3.18649000E+00  1.14427000E+00  4.20377000E-01
  1.42657000E-01  7.50000000E-01  2.51801000E+04  3.78035000E+03  8.60474000E+02
  2.42145000E+02  7.73349000E+01  2.62470000E+01  4.91765000E+02  1.16984000E+02
  3.74153000E+01  1.37834000E+01  5.45215000E+00  2.22588000E+00  3.18649000E+00
  1.14427000E+00  4.20377000E-01  1.42657000E-01  7.50000000E-01  2.51801000E+04
  3.78035000E+03  8.60474000E+02  2.42145000E+02  7.73349000E+01  2.62470000E+01
  4.91765000E+02  1.16984000E+02  3.74153000E+01  1.37834000E+01  5.45215000E+00
  2.22588000E+00  3.18649000E+00  1.14427000E+00  4.20377000E-01  1.42657000E-01
  7.50000000E-01  2.51801000E+04  3.78035000E+03  8.60474000E+02  2.42145000E+02
  7.73349000E+01  2.62470000E+01  4.91765000E+02  1.16984000E+02  3.74153000E+01
  1.37834000E+01  5.45215000E+00  2.22588000E+00  3.18649000E+00  1.14427000E+00
  4.20377000E-01  1.42657000E-01  7.50000000E-01  2.51801000E+04  3.78035000E+03
  8.60474000E+02  2.42145000E+02  7.73349000E+01  2.62470000E+01  4.91765000E+02
  1.16984000E+02  3.74153000E+01  1.37834000E+01  5.45215000E+00  2.22588000E+00
  3.18649000E+00  1.14427000E+00  4.20377000E-01  1.42657000E-01  7.50000000E-01
  2.51801000E+04  3.78035000E+03  8.60474000E+02  2.42145000E+02  7.73349000E+01
  2.62470000E+01  4.91765000E+02  1.16984000E+02  3.74153000E+01  1.37834000E+01
  5.45215000E+00  2.22588000E+00  3.18649000E+00  1.14427000E+00  4.20377000E-01
  1.42657000E-01  7.50000000E-01  3.04752488E+03  4.57369518E+02  1.03948685E+02
  2.92101553E+01  9.28666296E+00  3.16392696E+00  7.86827235E+00  1.88128854E+00
  5.44249258E-01  1.68714478E-01  8.00000000E-01  3.04752488E+03  4.57369518E+02
  1.03948685E+02  2.92101553E+01  9.28666296E+00  3.16392696E+00  7.86827235E+00
  1.88128854E+00  5.44249258E-01  1.68714478E-01  8.00000000E-01  3.04752488E+03
  4.57369518E+02  1.03948685E+02  2.92101553E+01  9.28666296E+00  3.16392696E+00
  7.86827235E+00  1.88128854E+00  5.44249258E-01  1.68714478E-01  8.00000000E-01
  1.87311370E+01  2.82539436E+00  6.40121692E-01  1.61277759E-01  1.87311370E+01
  2.82539436E+00  6.40121692E-01  1.61277759E-01
Contraction coefficients                   R   N=         143
  1.83295985E-03  1.40341988E-02  6.90973943E-02  2.37451980E-01  4.83033960E-01
  3.39855972E-01 -2.29739142E-03 -3.07137189E-02 -1.12528069E-01  4.50163278E-02
  5.89353363E-01  4.65206287E-01 -2.51828028E-01  6.15892514E-02  1.06018433E+00
  1.00000000E+00  1.00000000E+00  1.83295985E-03  1.40341988E-02  6.90973943E-02
  2.37451980E-01  4.83033960E-01  3.39855972E-01 -2.29739142E-03 -3.07137189E-02
 -1.12528069E-01  4.50163278E-02  5.89353363E-01  4.65206287E-01 -2.51828028E-01
  6.15892514E-02  1.06018433E+00  1.00000000E+00  1.00000000E+00  1.83295985E-03
  1.40341988E-02  6.90973943E-02  2.37451980E-01  4.83033960E-01  3.39855972E-01
 -2.29739142E-03 -3.07137189E-02 -1.12528069E-01  4.50163278E-02  5.89353363E-01
  4.65206287E-01 -2.51828028E-01  6.15892514E-02  1.06018433E+00  1.00000000E+00
  1.00000000E+00  1.83295985E-03  1.40341988E-02  6.90973943E-02  2.37451980E-01
  4.83033960E-01  3.39855972E-01 -2.29739142E-03 -3.07137189E-02 -1.12528069E-01
  4.50163278E-02  5.89353363E-01  4.65206287E-01 -2.51828028E-01  6.15892514E-02
  1.06018433E+00  1.00000000E+00  1.00000000E+00  1.83295985E-03  1.40341988E-02
  6.90973943E-02  2.37451980E-01  4.83033960E-01  3.39855972E-01 -2.29739142E-03
 -3.07137189E-02 -1.12528069E-01  4.50163278E-02  5.89353363E-01  4.65206287E-01
 -2.51828028E-01  6.15892514E-02  1.06018433E+00  1.00000000E+00  1.00000000E+00
  1.83295985E-03  1.40341988E-02  6.90973943E-02  2.37451980E-01  4.83033960E-01
  3.39855972E-01 -2.29739142E-03 -3.07137189E-02 -1.12528069E-01  4.50163278E-02
  5.89353363E-01  4.65206287E-01 -2.51828028E-01  6.15892514E-02  1.06018433E+00
  1.00000000E+00  1.00000000E+00  1.83473713E-03  1.40373228E-02  6.88426223E-02
  2.32184443E-01  4.67941348E-01  3.62311985E-01 -1.19332420E-01 -1.60854152E-01
  1.14345644E+00  1.00000000E+00  1.00000000E+00  1.83473713E-03  1.40373228E-02
  6.88426223E-02  2.32184443E-01  4.67941348E-01  3.62311985E-01 -1.19332420E-01
 -1.60854152E-01  1.14345644E+00  1.00000000E+00  1.00000000E+00  1.83473713E-03
  1.40373228E-02  6.88426223E-02  2.32184443E-01  4.67941348E-01  3.62311985E-01
 -1.19332420E-01 -1.60854152E-01  1.14345644E+00  1.00000000E+00  1.00000000E+00
  3.34946043E-02  2.34726953E-01  8.13757326E-01  1.00000000E+00  3.34946043E-02
  2.34726953E-01  8.13757326E-01  1.00000000E+00
P(S=P) Contraction coefficients            R   N=         143
  0.00000000E+00  0.00000000E+00  0.00000000E+00  0.00000000E+00  0.00000000E+00
  0.00000000E+00  3.98940088E-03  3.03177067E-02  1.29880029E-01  3.27951072E-01
  4.53527100E-01  2.52154056E-01 -1.42993147E-02  3.23572333E-01  7.43507765E-01
  1.00000000E+00  0.00000000E+00  0.00000000E+00  0.00000000E+00  0.00000000E+00
  0.00000000E+00  0.00000000E+00  0.00000000E+00  3.98940088E-03  3.03177067E-02
  1.29880029E-01  3.27951072E-01  4.53527100E-01  2.52154056E-01 -1.42993147E-02
  3.23572333E-01  7.43507765E-01  1.00000000E+00  0.00000000E+00  0.00000000E+00
  0.00000000E+00  0.00000000E+00  0.00000000E+00  0.00000000E+00  0.00000000E+00
  3.98940088E-03  3.03177067E-02  1.29880029E-01  3.27951072E-01  4.53527100E-01
  2.52154056E-01 -1.42993147E-02  3.23572333E-01  7.43507765E-01  1.00000000E+00
  0.00000000E+00  0.00000000E+00  0.00000000E+00  0.00000000E+00  0.00000000E+00
  0.00000000E+00  0.00000000E+00  3.98940088E-03  3.03177067E-02  1.29880029E-01
  3.27951072E-01  4.53527100E-01  2.52154056E-01 -1.42993147E-02  3.23572333E-01
  7.43507765E-01  1.00000000E+00  0.00000000E+00  0.00000000E+00  0.00000000E+00
  0.00000000E+00  0.00000000E+00  0.00000000E+00  0.00000000E+00  3.98940088E-03
  3.03177067E-02  1.29880029E-01  3.27951072E-01  4.53527100E-01  2.52154056E-01
 -1.42993147E-02  3.23572333E-01  7.43507765E-01  1.00000000E+00  0.00000000E+00
  0.00000000E+00  0.00000000E+00  0.00000000E+00  0.00000000E+00  0.00000000E+00
  0.00000000E+00  3.98940088E-03  3.03177067E-02  1.29880029E-01  3.27951072E-01
  4.53527100E-01  2.52154056E-01 -1.42993147E-02  3.23572333E-01  7.43507765E-01
  1.00000000E+00  0.00000000E+00  0.00000000E+00  0.00000000E+00  0.00000000E+00
  0.00000000E+00  0.00000000E+00  0.00000000E+00  6.89990666E-02  3.16423961E-01
  7.44308291E-01  1.00000000E+00  0.00000000E+00  0.00000000E+00  0.00000000E+00
  0.00000000E+00  0.00000000E+00  0.00000000E+00  0.00000000E+00  6.89990666E-02
  3.16423961E-01  7.44308291E-01  1.00000000E+00  0.00000000E+00  0.00000000E+00
  0.00000000E+00  0.00000000E+00  0.00000000E+00  0.00000000E+00  0.00000000E+00
  6.89990666E-02  3.16423961E-01  7.44308291E-01  1.00000000E+00  0.00000000E+00
  0.00000000E+00  0.00000000E+00  0.00000000E+00  0.00000000E+00  0.00000000E+00
  0.00000000E+00  0.00000000E+00  0.00000000E+00
Coordinates of each shell                  R   N=         138
  4.84893290E+00 -8.26004526E-01  2.59877577E+00  4.84893290E+00 -8.26004526E-01
  2.59877577E+00  4.84893290E+00 -8.26004526E-01  2.59877577E+00  4.84893290E+00
 -8.26004526E-01  2.59877577E+00  4.84893290E+00 -8.26004526E-01  2.59877577E+00
  3.32160157E+00  3.03414452E+00 -9.19739190E-01  3.32160157E+00  3.03414452E+00
 -9.19739190E-01  3.32160157E+00  3.03414452E+00 -9.19739190E-01  3.32160157E+00
  3.03414452E+00 -9.19739190E-01  3.32160157E+00  3.03414452E+00 -9.19739190E-01
  2.70894615E+00 -2.23846845E+00 -2.23052392E+00  2.70894615E+00 -2.23846845E+00
 -2.23052392E+00  2.70894615E+00 -2.23846845E+00 -2.23052392E+00  2.70894615E+00
 -2.23846845E+00 -2.23052392E+00  2.70894615E+00 -2.23846845E+00 -2.23052392E+00
 -3.32159326E+00 -3.03414250E+00 -9.19748470E-01 -3.32159326E+00 -3.03414250E+00
 -9.19748470E-01 -3.32159326E+00 -3.03414250E+00 -9.19748470E-01 -3.32159326E+00
 -3.03414250E+00 -9.19748470E-01 -3.32159326E+00 -3.03414250E+00 -9.19748470E-01
 -4.84893474E+00  8.25993824E-01  2.59877762E+00 -4.84893474E+00  8.25993824E-01
  2.59877762E+00 -4.84893474E+00  8.25993824E-01  2.59877762E+00 -4.84893474E+00
  8.25993824E-01  2.59877762E+00 -4.84893474E+00  8.25993824E-01  2.59877762E+00
 -2.70895267E+00  2.23847630E+00 -2.23051677E+00 -2.70895267E+00  2.23847630E+00
 -2.23051677E+00 -2.70895267E+00  2.23847630E+00 -2.23051677E+00 -2.70895267E+00
  2.23847630E+00 -2.23051677E+00 -2.70895267E+00  2.23847630E+00 -2.23051677E+00
  1.19776986E-06  1.41818190E-06  1.65618966E+00  1.19776986E-06  1.41818190E-06
  1.65618966E+00  1.19776986E-06  1.41818190E-06  1.65618966E+00  1.19776986E-06
  1.41818190E-06  1.65618966E+00  2.54717667E+00 -1.56356173E-02  2.55410039E-01
  2.54717667E+00 -1.56356173E-02  2.55410039E-01  2.54717667E+00 -1.56356173E-02
  2.55410039E-01  2.54717667E+00 -1.56356173E-02  2.55410039E-01 -2.54717838E+00
  1.56360688E-02  2.55416545E-01 -2.54717838E+00  1.56360688E-02  2.55416545E-01
 -2.54717838E+00  1.56360688E-02  2.55416545E-01 -2.54717838E+00  1.56360688E-02
  2.55416545E-01  5.07706733E-02  1.66662658E+00  2.87423860E+00  5.07706733E-02
  1.66662658E+00  2.87423860E+00 -5.07665194E-02 -1.66662350E+00  2.87423808E+00
 -5.07665194E-02 -1.66662350E+00  2.87423808E+00
Constraint Structure                       R   N=          33
  4.84893290E+00 -8.26004526E-01  2.59877577E+00  3.32160157E+00  3.03414452E+00
 -9.19739190E-01  2.70894615E+00 -2.23846845E+00 -2.23052392E+00 -3.32159326E+00
 -3.03414250E+00 -9.19748470E-01 -4.84893474E+00  8.25993824E-01  2.59877762E+00
 -2.70895267E+00  2.23847630E+00 -2.23051677E+00  1.19776986E-06  1.41818190E-06
  1.65618966E+00  2.54717667E+00 -1.56356173E-02  2.55410039E-01 -2.54717838E+00
  1.56360688E-02  2.55416545E-01  5.07706733E-02  1.66662658E+00  2.87423860E+00
 -5.07665194E-02 -1.66662350E+00  2.87423808E+00
Num ILSW                                   I              100
ILSW                                       I   N=         100
           0           1           0           0           2           0
           0           0           0           0           0          -1
           0           0           0           0           0           0
           0           0           0           0           1           0
           1           0           0           0           0           0
           0           0      100000           0          -1           0
           0           0           0           0           0           0
           0           0           0           1           1           0
           0           0           1           0           0           0
           0           0           4          40           0           0
           0           0           0           0           0           0
           0           0           0           0           0           0
           0           0           0           0           0           0
           0           0           0           0           0           0
           0           0           0           0           0           0
           0           0           0           0           0           0
           0           0           0           0
Num RLSW                                   I               40
RLSW                                       R   N=          40
  1.00000000E+00  1.00000000E+00  1.00000000E+00  1.00000000E+00  1.00000000E+00
  0.00000000E+00  0.00000000E+00  1.00000000E+00  0.00000000E+00  0.00000000E+00
  0.00000000E+00  0.00000000E+00  1.00000000E+00  0.00000000E+00  0.00000000E+00
  0.00000000E+00  0.00000000E+00  1.00000000E+00  0.00000000E+00  0.00000000E+00
  0.00000000E+00  0.00000000E+00  1.00000000E+00  0.00000000E+00  0.00000000E+00
  0.00000000E+00  0.00000000E+00  1.00000000E+00  0.00000000E+00  0.00000000E+00
  0.00000000E+00  0.00000000E+00  0.00000000E+00  0.00000000E+00  0.00000000E+00
  0.00000000E+00  0.00000000E+00  0.00000000E+00  1.00000000E+00  1.00000000E+00
MxBond                                     I                4
NBond                                      I   N=          11
           1           1           1           1           1           1
           4           4           4           1           1
IBond                                      I   N=          44
           8           0           0           0           8           0
           0           0           8           0           0           0
           9           0           0           0           9           0
           0           0           9           0           0           0
           8           9          10          11           1           2
           3           7           4           5           6           7
           7           0           0           0           7           0
           0           0
RBond                                      R   N=          44
  1.00000000E+00  0.00000000E+00  0.00000000E+00  0.00000000E+00  1.00000000E+00
  0.00000000E+00  0.00000000E+00  0.00000000E+00  1.00000000E+00  0.00000000E+00
  0.00000000E+00  0.00000000E+00  1.00000000E+00  0.00000000E+00  0.00000000E+00
  0.00000000E+00  1.00000000E+00  0.00000000E+00  0.00000000E+00  0.00000000E+00
  1.00000000E+00  0.00000000E+00  0.00000000E+00  0.00000000E+00  1.00000000E+00
  1.00000000E+00  1.00000000E+00  1.00000000E+00  1.00000000E+00  1.00000000E+00
  1.00000000E+00  1.00000000E+00  1.00000000E+00  1.00000000E+00  1.00000000E+00
  1.00000000E+00  1.00000000E+00  0.00000000E+00  0.00000000E+00  0.00000000E+00
  1.00000000E+00  0.00000000E+00  0.00000000E+00  0.00000000E+00
Virial Ratio                               R      2.000404869519904E+00
SCF Energy                                 R     -2.871595677797289E+03
MP2 Energy                                 R     -2.872792216699038E+03
Total Energy                               R     -2.872792216699038E+03
Post-SCF wavefunction norm                 R      1.695598343617145E+00
RMS Force                                  R      5.284834732579369E-07
RMS Density                                R      5.072823003043567E-10
External E-field                           R   N=          35
  0.00000000E+00  0.00000000E+00  0.00000000E+00  0.00000000E+00  0.00000000E+00
  0.00000000E+00  0.00000000E+00  0.00000000E+00  0.00000000E+00  0.00000000E+00
  0.00000000E+00  0.00000000E+00  0.00000000E+00  0.00000000E+00  0.00000000E+00
  0.00000000E+00  0.00000000E+00  0.00000000E+00  0.00000000E+00  0.00000000E+00
  0.00000000E+00  0.00000000E+00  0.00000000E+00  0.00000000E+00  0.00000000E+00
  0.00000000E+00  0.00000000E+00  0.00000000E+00  0.00000000E+00  0.00000000E+00
  0.00000000E+00  0.00000000E+00  0.00000000E+00  0.00000000E+00  0.00000000E+00
IOpCl                                      I                0
IROHF                                      I                0
Alpha Orbital Energies                     R   N=         163
 -1.04859462E+02 -1.04859461E+02 -1.04859129E+02 -1.04859129E+02 -1.04856873E+02
 -1.04856873E+02 -1.14570166E+01 -1.14570061E+01 -1.13146680E+01 -1.05937943E+01
 -1.05937919E+01 -1.05935452E+01 -1.05935407E+01 -1.05912593E+01 -1.05912570E+01
 -8.06308925E+00 -8.06308706E+00 -8.06291154E+00 -8.06290640E+00 -8.06061005E+00
 -8.06060913E+00 -8.05935713E+00 -8.05935441E+00 -8.05932095E+00 -8.05931901E+00
 -8.05906597E+00 -8.05905454E+00 -8.05904327E+00 -8.05904240E+00 -8.05680714E+00
 -8.05680657E+00 -8.05675186E+00 -8.05674922E+00 -1.28239457E+00 -1.25103004E+00
 -1.12856290E+00 -1.12720945E+00 -1.11972330E+00 -1.11824249E+00 -1.05753748E+00
 -8.71824124E-01 -7.99899285E-01 -7.02945804E-01 -6.83153390E-01 -6.79052038E-01
 -6.34108397E-01 -6.20325623E-01 -6.00080262E-01 -5.75132381E-01 -5.25162098E-01
 -5.17908481E-01 -5.06445779E-01 -5.01700877E-01 -4.95594464E-01 -4.79165569E-01
 -4.76362647E-01 -4.67685750E-01 -4.59667859E-01 -4.58419626E-01 -4.52275904E-01
 -4.47862112E-01  1.05123603E-01  1.21960280E-01  1.50303401E-01  1.60298378E-01
  1.65327779E-01  1.69431129E-01  2.51891582E-01  2.88861396E-01  3.01314085E-01
  3.30852447E-01  4.32929158E-01  4.69698774E-01  4.85312374E-01  5.17259355E-01
  5.57275842E-01  5.57314200E-01  5.61307233E-01  5.71062117E-01  5.88926889E-01
  5.96404695E-01  5.96722878E-01  6.04679073E-01  6.20756716E-01  6.22439607E-01
  6.31593570E-01  6.46854006E-01  6.67542628E-01  6.75136608E-01  6.87987802E-01
  6.88750548E-01  6.97895783E-01  7.04855492E-01  7.20558419E-01  7.55851401E-01
  7.55995749E-01  8.00595264E-01  8.02872395E-01  8.32691449E-01  8.39756213E-01
  8.64306721E-01  8.80518698E-01  9.21031557E-01  9.53202032E-01  1.01767123E+00
  1.06836444E+00  1.07211291E+00  1.09314051E+00  1.09380595E+00  1.11301359E+00
  1.11315355E+00  1.11627157E+00  1.12110596E+00  1.12945025E+00  1.13397759E+00
  1.14853138E+00  1.15085839E+00  1.15700603E+00  1.16213546E+00  1.16723911E+00
  1.17830362E+00  1.18164489E+00  1.21745725E+00  1.23289361E+00  1.24233279E+00
  1.30128389E+00  1.30871870E+00  1.33033321E+00  1.34793990E+00  1.36072089E+00
  1.38179762E+00  1.39276494E+00  1.48891535E+00  1.49409138E+00  1.52602529E+00
  1.57937179E+00  1.61632274E+00  1.74493129E+00  1.79942826E+00  1.83971574E+00
  1.92410595E+00  1.93905759E+00  2.12573197E+00  2.17277692E+00  2.18969954E+00
  2.31348959E+00  2.31977371E+00  2.40691711E+00  2.41749362E+00  2.54052064E+00
  2.55362558E+00  2.61191696E+00  2.92441146E+00  2.92984496E+00  4.34460911E+00
  4.46467007E+00  4.66779647E+00  4.69329442E+00  4.70180975E+00  4.71432375E+00
  4.73641509E+00  4.79212045E+00  4.85535712E+00
Alpha MO coefficients                      R   N=       26569
  2.44434456E-01  3.59326304E-03 -1.09855537E-05  3.24167016E-06 -9.22868530E-06
 -4.35292986E-03  1.45065790E-05 -2.79011894E-06  8.63735020E-06  3.71960009E-04
 -1.78637174E-05  3.62533722E-06 -1.27711949E-05  1.53325506E-03  1.53535956E-03
  1.53597063E-03  1.57569897E-07  1.23785745E-06 -5.92626285E-07 -5.42247100E-05
 -1.63475962E-06 -7.42475907E-07 -4.97038212E-07  8.61563303E-07  7.38181471E-06
  4.44067358E-06  2.63610244E-06 -4.11756513E-06 -2.20535544E-06 -1.62215406E-05
  4.11341309E-06  7.52693050E-07 -3.44554713E-06 -5.96081663E-06 -5.83859532E-06
  2.19369850E-06 -1.98682230E-06  2.11938348E-06 -5.15356278E-04 -6.37634771E-06
  3.09169572E-07  4.34245675E-07  8.05274850E-07  1.82301241E-05 -1.39539161E-06
 -2.29952148E-06 -3.50174575E-06 -3.20438392E-05 -3.02240286E-06 -4.70068520E-06
 -1.29247529E-05 -2.57539362E-06 -1.58992981E-06 -5.87973355E-06 -1.00686273E-06
 -2.44939202E-06 -1.87454714E-06 -2.70105061E-04 -2.02210663E-06  1.14298154E-06
  3.14872645E-06  1.64323080E-06  4.16602004E-05 -7.40239517E-06 -1.56290921E-05
 -6.83366085E-06 -9.90022777E-05  2.59019042E-05 -4.62218879E-05 -4.29073047E-05
 -2.74918382E-06 -1.67704382E-05 -1.22514917E-05  5.23083282E-06  5.22691141E-06
 -1.57053373E-05  9.65657723E-01  1.41929658E-02  4.17354733E-05 -1.36729256E-05
 -3.88711856E-05 -1.71950241E-02 -5.31143149E-05  1.62834361E-05  4.71054835E-05
  1.46005150E-03  6.29729066E-05 -1.66800721E-05 -5.27526300E-05  6.05970478E-03
  6.05871244E-03  6.05972924E-03  4.32120383E-07 -5.21816736E-08  4.85365039E-08
 -2.21990041E-03 -2.88264435E-05 -3.16832152E-07 -2.14960969E-06  2.25931198E-06
  7.84734128E-05  1.31340604E-07  1.14819303E-05 -9.52191481E-06 -1.20548563E-04
  2.19681411E-05  1.70214646E-05 -6.80958382E-05 -1.23948997E-05 -1.07665827E-05
 -3.15902263E-05 -3.05269329E-06  9.78014039E-06  9.67094547E-06 -5.46893760E-06
  8.87379482E-07  7.26005546E-06 -5.19031970E-07 -4.38101385E-07  5.16770603E-05
  8.79929903E-05  1.85215824E-06  2.84857235E-05 -3.07806921E-05 -1.85714599E-05
 -1.68319188E-05  1.95460595E-06 -1.75358852E-06  2.28018552E-06 -2.54319664E-06
  6.13625209E-06  1.15124767E-05 -2.84950701E-06  5.92762337E-06 -2.15486624E-05
  9.68684881E-06 -6.58834923E-06 -1.96526902E-05 -5.11647303E-06 -6.23926338E-06
 -9.06410530E-06  4.74937605E-07 -3.31244489E-06  1.68885029E-06 -1.32680485E-05
  5.41645393E-06 -2.99277538E-05  1.23494659E-05  3.17051938E-05  2.11713428E-04
  1.27023021E-05 -3.70402558E-06  2.28517901E-06 -2.94072828E-05 -2.50728928E-05
 -2.98901888E-05  3.56033082E-06  1.49447836E-05 -4.11075228E-06  5.44825489E-06
 -9.38318462E-05  9.03854090E-06 -7.51423303E-05  9.65657671E-01  1.41926220E-02
 -4.15074628E-05  1.37916911E-05 -3.92014264E-05 -1.71948078E-02  5.25398407E-05
 -1.70039704E-05  4.88830614E-05  1.45876413E-03 -6.19325804E-05  1.70030253E-05
 -5.30676372E-05  6.06004088E-03  6.05777444E-03  6.05859989E-03  4.06155776E-07
 -6.10348080E-07  2.65486501E-07 -2.77823330E-04 -1.41571774E-06 -8.97862290E-07
 -3.31096194E-06  1.40217263E-06  4.33722736E-05  6.01388681E-06  1.63429924E-05
 -5.54200248E-06 -1.11363934E-04 -2.06738593E-05  5.03251855E-05 -4.91890484E-05
 -1.26232256E-06 -1.58426752E-05 -1.07711238E-05  4.76045333E-06 -4.86783668E-06
  1.67092720E-05 -2.25097718E-03 -2.94108624E-05  1.93034645E-07  2.20876821E-06
  2.13277612E-06  7.94618774E-05  6.05271612E-07 -1.18097512E-05 -8.93107365E-06
 -1.19730013E-04 -2.33409876E-05 -1.68094186E-05 -7.04286949E-05 -1.27358291E-05
 -1.14174595E-05 -3.27719633E-05 -2.92602580E-06 -9.79439170E-06 -9.98096394E-06
  8.44726518E-05 -7.64548426E-07  2.25882807E-07 -1.13808987E-06  9.06844796E-08
 -1.41422865E-05 -1.04468176E-06  5.45692125E-06 -9.84922282E-07  5.10441701E-05
  4.43210966E-06  2.03251465E-05  2.40646759E-05 -2.43008803E-06  2.29438786E-06
 -1.09834210E-08 -3.35383686E-07 -5.68466331E-07  6.08562943E-06 -2.44434300E-01
 -3.59190572E-03 -1.00855157E-05  3.71036618E-06  1.05336246E-05  4.35207728E-03
  1.22373932E-05 -5.63577951E-06 -1.56599555E-05 -3.66871802E-04 -1.37531524E-05
  4.90065029E-06  1.40147395E-05 -1.53458408E-03 -1.53165476E-03 -1.53151002E-03
 -5.46434058E-08 -1.37914964E-06  6.47533436E-07  6.16370021E-04  8.36544385E-06
 -1.80092872E-07  6.68968563E-07 -3.06487201E-07 -2.17480858E-05  1.51527011E-06
 -3.59618116E-06  1.16923065E-06  2.87776876E-05 -8.44640044E-06 -3.86305833E-06
  2.21396422E-05  3.78596473E-06  4.02554956E-06  1.04121723E-05  5.06502923E-07
 -2.50546210E-06 -3.09991298E-06 -3.25954338E-06  5.28517931E-07 -1.21810920E-05
  8.70932353E-07 -2.61178759E-07  3.08009748E-05 -1.47635742E-04 -3.10841126E-06
  1.69776324E-05 -1.83452725E-05 -1.10686565E-05 -1.00319111E-05  1.16489755E-06
  2.94211194E-06 -3.82583496E-06 -1.37089886E-05  2.83763390E-06  2.77981815E-05
 -1.24990474E-05  3.28400192E-05  2.52353692E-04 -1.96803961E-05  7.77501571E-06
  1.32285491E-05 -3.06650112E-05 -2.51303007E-05 -2.90785040E-05  3.79060601E-06
 -1.51982398E-05  3.75996591E-06  4.28540456E-06  4.04685336E-06  3.09950011E-06
 -3.44030835E-06 -1.04105514E-05 -1.39016321E-04 -1.78836256E-05  9.49379667E-06
 -2.35792765E-05  1.00894124E-05  6.46847601E-06  5.86241706E-06 -1.38577922E-06
 -4.31759771E-06  3.03449514E-07  7.32916729E-06 -3.46755767E-05  1.30483491E-06
 -6.60343761E-05  2.26005364E-03  3.53817489E-05 -2.22806841E-06  1.11766208E-06
 -2.76669792E-06 -2.76006694E-06  1.11497364E-05 -7.14626304E-06  1.16430077E-05
 -9.92674792E-05  2.55919069E-05  2.15330228E-05  5.97773272E-05  1.11289907E-05