7015                                                                    
Freq      RMP2-FC                                                     6-31G(d)            
Number of atoms                            I               24
Info1-9                                    I   N=           9
          36          34        1002           0           0         100
           6           2           1
Charge                                     I                0
Multiplicity                               I                1
Number of electrons                        I               90
Number of alpha electrons                  I               45
Number of beta electrons                   I               45
Number of basis functions                  I              217
Number of independent functions            I              217
Number of point charges in /Mol/           I                0
Number of translation vectors              I                0
Atomic numbers                             I   N=          24
           7           6           6           6           6           6
           6           6           6           6           6           6
           6           1           1           1           1           1
           1           1           1           1           1           1
Nuclear charges                            R   N=          24
  7.00000000E+00  6.00000000E+00  6.00000000E+00  6.00000000E+00  6.00000000E+00
  6.00000000E+00  6.00000000E+00  6.00000000E+00  6.00000000E+00  6.00000000E+00
  6.00000000E+00  6.00000000E+00  6.00000000E+00  1.00000000E+00  1.00000000E+00
  1.00000000E+00  1.00000000E+00  1.00000000E+00  1.00000000E+00  1.00000000E+00
  1.00000000E+00  1.00000000E+00  1.00000000E+00  1.00000000E+00
Current cartesian coordinates              R   N=          72
 -1.62152593E+00  4.09139653E+00 -9.62709349E-01 -1.25369062E+00 -4.02067840E-01
  1.30679974E-01  1.54160835E+00 -2.90599628E-01  7.94802316E-02 -2.74201918E+00
  1.73510943E+00 -4.57956052E-01 -2.46139937E+00 -2.69286688E+00  6.96806458E-01
  2.91799841E+00 -2.06224354E+00 -1.33839058E+00  2.86768664E+00  1.52443199E+00
  1.49430088E+00 -5.38296004E+00  1.52820015E+00 -3.74179398E-01 -5.08687975E+00
 -2.88914311E+00  7.51485529E-01 -6.54721533E+00 -7.61829211E-01  1.99070557E-01
  5.55447332E+00 -2.02504053E+00 -1.34039115E+00  5.50487810E+00  1.56235089E+00
  1.48270286E+00  6.85573282E+00 -2.12102094E-01  6.98143636E-02 -1.29420525E+00
 -4.32202780E+00  1.16067770E+00  1.90081885E+00 -3.45420434E+00 -2.45959263E+00
  1.81679190E+00  2.89044983E+00  2.61411293E+00 -6.52874077E+00  3.18069416E+00
 -8.14306161E-01 -5.98179792E+00 -4.68003074E+00  1.21020949E+00 -8.59917062E+00
 -8.72215310E-01  2.39445830E-01  6.59479495E+00 -3.40567211E+00 -2.45241060E+00
  6.50785362E+00  2.96837651E+00  2.59731902E+00  8.91036347E+00 -1.80401448E-01
  6.52897642E-02  1.39095532E-01  3.94118914E+00 -1.71470556E+00 -2.72440239E+00
  5.20886871E+00 -2.06761643E+00
Force Field                                I                0
Int Atom Types                             I   N=          24
           0           0           0           0           0           0
           0           0           0           0           0           0
           0           0           0           0           0           0
           0           0           0           0           0           0
MM charges                                 R   N=          24
  0.00000000E+00  0.00000000E+00  0.00000000E+00  0.00000000E+00  0.00000000E+00
  0.00000000E+00  0.00000000E+00  0.00000000E+00  0.00000000E+00  0.00000000E+00
  0.00000000E+00  0.00000000E+00  0.00000000E+00  0.00000000E+00  0.00000000E+00
  0.00000000E+00  0.00000000E+00  0.00000000E+00  0.00000000E+00  0.00000000E+00
  0.00000000E+00  0.00000000E+00  0.00000000E+00  0.00000000E+00
Integer atomic weights                     I   N=          24
          14          12          12          12          12          12
          12          12          12          12          12          12
          12           1           1           1           1           1
           1           1           1           1           1           1
Real atomic weights                        R   N=          24
  1.40030740E+01  1.20000000E+01  1.20000000E+01  1.20000000E+01  1.20000000E+01
  1.20000000E+01  1.20000000E+01  1.20000000E+01  1.20000000E+01  1.20000000E+01
  1.20000000E+01  1.20000000E+01  1.20000000E+01  1.00782504E+00  1.00782504E+00
  1.00782504E+00  1.00782504E+00  1.00782504E+00  1.00782504E+00  1.00782504E+00
  1.00782504E+00  1.00782504E+00  1.00782504E+00  1.00782504E+00
Atom fragment info                         I   N=          24
           0           0           0           0           0           0
           0           0           0           0           0           0
           0           0           0           0           0           0
           0           0           0           0           0           0
Atom residue num                           I   N=          24
           0           0           0           0           0           0
           0           0           0           0           0           0
           0           0           0           0           0           0
           0           0           0           0           0           0
Nuclear spins                              I   N=          24
           2           0           0           0           0           0
           0           0           0           0           0           0
           0           1           1           1           1           1
           1           1           1           1           1           1
Nuclear ZEff                               R   N=          24
 -4.55000000E+00 -3.60000000E+00 -3.60000000E+00 -3.60000000E+00 -3.60000000E+00
 -3.60000000E+00 -3.60000000E+00 -3.60000000E+00 -3.60000000E+00 -3.60000000E+00
 -3.60000000E+00 -3.60000000E+00 -3.60000000E+00 -1.00000000E+00 -1.00000000E+00
 -1.00000000E+00 -1.00000000E+00 -1.00000000E+00 -1.00000000E+00 -1.00000000E+00
 -1.00000000E+00 -1.00000000E+00 -1.00000000E+00 -1.00000000E+00
Nuclear QMom                               R   N=          24
  2.04400000E+00  0.00000000E+00  0.00000000E+00  0.00000000E+00  0.00000000E+00
  0.00000000E+00  0.00000000E+00  0.00000000E+00  0.00000000E+00  0.00000000E+00
  0.00000000E+00  0.00000000E+00  0.00000000E+00  0.00000000E+00  0.00000000E+00
  0.00000000E+00  0.00000000E+00  0.00000000E+00  0.00000000E+00  0.00000000E+00
  0.00000000E+00  0.00000000E+00  0.00000000E+00  0.00000000E+00
Nuclear GFac                               R   N=          24
  4.03761000E-01  0.00000000E+00  0.00000000E+00  0.00000000E+00  0.00000000E+00
  0.00000000E+00  0.00000000E+00  0.00000000E+00  0.00000000E+00  0.00000000E+00
  0.00000000E+00  0.00000000E+00  0.00000000E+00  2.79284600E+00  2.79284600E+00
  2.79284600E+00  2.79284600E+00  2.79284600E+00  2.79284600E+00  2.79284600E+00
  2.79284600E+00  2.79284600E+00  2.79284600E+00  2.79284600E+00
MicOpt                                     I   N=          24
          -1          -1          -1          -1          -1          -1
          -1          -1          -1          -1          -1          -1
          -1          -1          -1          -1          -1          -1
          -1          -1          -1          -1          -1          -1
Number of contracted shells                I               74
Number of primitive shells                 I              187
Pure/Cartesian d shells                    I                1
Pure/Cartesian f shells                    I                0
Highest angular momentum                   I                2
Largest degree of contraction              I                6
Shell types                                I   N=          74
           0          -1          -1           2           0          -1
          -1           2           0          -1          -1           2
           0          -1          -1           2           0          -1
          -1           2           0          -1          -1           2
           0          -1          -1           2           0          -1
          -1           2           0          -1          -1           2
           0          -1          -1           2           0          -1
          -1           2           0          -1          -1           2
           0          -1          -1           2           0           0
           0           0           0           0           0           0
           0           0           0           0           0           0
           0           0           0           0           0           0
           0           0
Number of primitives per shell             I   N=          74
           6           3           1           1           6           3
           1           1           6           3           1           1
           6           3           1           1           6           3
           1           1           6           3           1           1
           6           3           1           1           6           3
           1           1           6           3           1           1
           6           3           1           1           6           3
           1           1           6           3           1           1
           6           3           1           1           3           1
           3           1           3           1           3           1
           3           1           3           1           3           1
           3           1           3           1           3           1
           3           1
Shell to atom map                          I   N=          74
           1           1           1           1           2           2
           2           2           3           3           3           3
           4           4           4           4           5           5
           5           5           6           6           6           6
           7           7           7           7           8           8
           8           8           9           9           9           9
          10          10          10          10          11          11
          11          11          12          12          12          12
          13          13          13          13          14          14
          15          15          16          16          17          17
          18          18          19          19          20          20
          21          21          22          22          23          23
          24          24
Primitive exponents                        R   N=         187
  4.17351146E+03  6.27457911E+02  1.42902093E+02  4.02343293E+01  1.28202129E+01
  4.39043701E+00  1.16263619E+01  2.71627981E+00  7.72218397E-01  2.12031498E-01
  8.00000000E-01  3.04752488E+03  4.57369518E+02  1.03948685E+02  2.92101553E+01
  9.28666296E+00  3.16392696E+00  7.86827235E+00  1.88128854E+00  5.44249258E-01
  1.68714478E-01  8.00000000E-01  3.04752488E+03  4.57369518E+02  1.03948685E+02
  2.92101553E+01  9.28666296E+00  3.16392696E+00  7.86827235E+00  1.88128854E+00
  5.44249258E-01  1.68714478E-01  8.00000000E-01  3.04752488E+03  4.57369518E+02
  1.03948685E+02  2.92101553E+01  9.28666296E+00  3.16392696E+00  7.86827235E+00
  1.88128854E+00  5.44249258E-01  1.68714478E-01  8.00000000E-01  3.04752488E+03
  4.57369518E+02  1.03948685E+02  2.92101553E+01  9.28666296E+00  3.16392696E+00
  7.86827235E+00  1.88128854E+00  5.44249258E-01  1.68714478E-01  8.00000000E-01
  3.04752488E+03  4.57369518E+02  1.03948685E+02  2.92101553E+01  9.28666296E+00
  3.16392696E+00  7.86827235E+00  1.88128854E+00  5.44249258E-01  1.68714478E-01
  8.00000000E-01  3.04752488E+03  4.57369518E+02  1.03948685E+02  2.92101553E+01
  9.28666296E+00  3.16392696E+00  7.86827235E+00  1.88128854E+00  5.44249258E-01
  1.68714478E-01  8.00000000E-01  3.04752488E+03  4.57369518E+02  1.03948685E+02
  2.92101553E+01  9.28666296E+00  3.16392696E+00  7.86827235E+00  1.88128854E+00
  5.44249258E-01  1.68714478E-01  8.00000000E-01  3.04752488E+03  4.57369518E+02
  1.03948685E+02  2.92101553E+01  9.28666296E+00  3.16392696E+00  7.86827235E+00
  1.88128854E+00  5.44249258E-01  1.68714478E-01  8.00000000E-01  3.04752488E+03
  4.57369518E+02  1.03948685E+02  2.92101553E+01  9.28666296E+00  3.16392696E+00
  7.86827235E+00  1.88128854E+00  5.44249258E-01  1.68714478E-01  8.00000000E-01
  3.04752488E+03  4.57369518E+02  1.03948685E+02  2.92101553E+01  9.28666296E+00
  3.16392696E+00  7.86827235E+00  1.88128854E+00  5.44249258E-01  1.68714478E-01
  8.00000000E-01  3.04752488E+03  4.57369518E+02  1.03948685E+02  2.92101553E+01
  9.28666296E+00  3.16392696E+00  7.86827235E+00  1.88128854E+00  5.44249258E-01
  1.68714478E-01  8.00000000E-01  3.04752488E+03  4.57369518E+02  1.03948685E+02
  2.92101553E+01  9.28666296E+00  3.16392696E+00  7.86827235E+00  1.88128854E+00
  5.44249258E-01  1.68714478E-01  8.00000000E-01  1.87311370E+01  2.82539436E+00
  6.40121692E-01  1.61277759E-01  1.87311370E+01  2.82539436E+00  6.40121692E-01
  1.61277759E-01  1.87311370E+01  2.82539436E+00  6.40121692E-01  1.61277759E-01
  1.87311370E+01  2.82539436E+00  6.40121692E-01  1.61277759E-01  1.87311370E+01
  2.82539436E+00  6.40121692E-01  1.61277759E-01  1.87311370E+01  2.82539436E+00
  6.40121692E-01  1.61277759E-01  1.87311370E+01  2.82539436E+00  6.40121692E-01
  1.61277759E-01  1.87311370E+01  2.82539436E+00  6.40121692E-01  1.61277759E-01
  1.87311370E+01  2.82539436E+00  6.40121692E-01  1.61277759E-01  1.87311370E+01
  2.82539436E+00  6.40121692E-01  1.61277759E-01  1.87311370E+01  2.82539436E+00
  6.40121692E-01  1.61277759E-01
Contraction coefficients                   R   N=         187
  1.83477216E-03  1.39946270E-02  6.85865518E-02  2.32240873E-01  4.69069948E-01
  3.60455199E-01 -1.14961182E-01 -1.69117479E-01  1.14585195E+00  1.00000000E+00
  1.00000000E+00  1.83473713E-03  1.40373228E-02  6.88426223E-02  2.32184443E-01
  4.67941348E-01  3.62311985E-01 -1.19332420E-01 -1.60854152E-01  1.14345644E+00
  1.00000000E+00  1.00000000E+00  1.83473713E-03  1.40373228E-02  6.88426223E-02
  2.32184443E-01  4.67941348E-01  3.62311985E-01 -1.19332420E-01 -1.60854152E-01
  1.14345644E+00  1.00000000E+00  1.00000000E+00  1.83473713E-03  1.40373228E-02
  6.88426223E-02  2.32184443E-01  4.67941348E-01  3.62311985E-01 -1.19332420E-01
 -1.60854152E-01  1.14345644E+00  1.00000000E+00  1.00000000E+00  1.83473713E-03
  1.40373228E-02  6.88426223E-02  2.32184443E-01  4.67941348E-01  3.62311985E-01
 -1.19332420E-01 -1.60854152E-01  1.14345644E+00  1.00000000E+00  1.00000000E+00
  1.83473713E-03  1.40373228E-02  6.88426223E-02  2.32184443E-01  4.67941348E-01
  3.62311985E-01 -1.19332420E-01 -1.60854152E-01  1.14345644E+00  1.00000000E+00
  1.00000000E+00  1.83473713E-03  1.40373228E-02  6.88426223E-02  2.32184443E-01
  4.67941348E-01  3.62311985E-01 -1.19332420E-01 -1.60854152E-01  1.14345644E+00
  1.00000000E+00  1.00000000E+00  1.83473713E-03  1.40373228E-02  6.88426223E-02
  2.32184443E-01  4.67941348E-01  3.62311985E-01 -1.19332420E-01 -1.60854152E-01
  1.14345644E+00  1.00000000E+00  1.00000000E+00  1.83473713E-03  1.40373228E-02
  6.88426223E-02  2.32184443E-01  4.67941348E-01  3.62311985E-01 -1.19332420E-01
 -1.60854152E-01  1.14345644E+00  1.00000000E+00  1.00000000E+00  1.83473713E-03
  1.40373228E-02  6.88426223E-02  2.32184443E-01  4.67941348E-01  3.62311985E-01
 -1.19332420E-01 -1.60854152E-01  1.14345644E+00  1.00000000E+00  1.00000000E+00
  1.83473713E-03  1.40373228E-02  6.88426223E-02  2.32184443E-01  4.67941348E-01
  3.62311985E-01 -1.19332420E-01 -1.60854152E-01  1.14345644E+00  1.00000000E+00
  1.00000000E+00  1.83473713E-03  1.40373228E-02  6.88426223E-02  2.32184443E-01
  4.67941348E-01  3.62311985E-01 -1.19332420E-01 -1.60854152E-01  1.14345644E+00
  1.00000000E+00  1.00000000E+00  1.83473713E-03  1.40373228E-02  6.88426223E-02
  2.32184443E-01  4.67941348E-01  3.62311985E-01 -1.19332420E-01 -1.60854152E-01
  1.14345644E+00  1.00000000E+00  1.00000000E+00  3.34946043E-02  2.34726953E-01
  8.13757326E-01  1.00000000E+00  3.34946043E-02  2.34726953E-01  8.13757326E-01
  1.00000000E+00  3.34946043E-02  2.34726953E-01  8.13757326E-01  1.00000000E+00
  3.34946043E-02  2.34726953E-01  8.13757326E-01  1.00000000E+00  3.34946043E-02
  2.34726953E-01  8.13757326E-01  1.00000000E+00  3.34946043E-02  2.34726953E-01
  8.13757326E-01  1.00000000E+00  3.34946043E-02  2.34726953E-01  8.13757326E-01
  1.00000000E+00  3.34946043E-02  2.34726953E-01  8.13757326E-01  1.00000000E+00
  3.34946043E-02  2.34726953E-01  8.13757326E-01  1.00000000E+00  3.34946043E-02
  2.34726953E-01  8.13757326E-01  1.00000000E+00  3.34946043E-02  2.34726953E-01
  8.13757326E-01  1.00000000E+00
P(S=P) Contraction coefficients            R   N=         187
  0.00000000E+00  0.00000000E+00  0.00000000E+00  0.00000000E+00  0.00000000E+00
  0.00000000E+00  6.75797439E-02  3.23907296E-01  7.40895140E-01  1.00000000E+00
  0.00000000E+00  0.00000000E+00  0.00000000E+00  0.00000000E+00  0.00000000E+00
  0.00000000E+00  0.00000000E+00  6.89990666E-02  3.16423961E-01  7.44308291E-01
  1.00000000E+00  0.00000000E+00  0.00000000E+00  0.00000000E+00  0.00000000E+00
  0.00000000E+00  0.00000000E+00  0.00000000E+00  6.89990666E-02  3.16423961E-01
  7.44308291E-01  1.00000000E+00  0.00000000E+00  0.00000000E+00  0.00000000E+00
  0.00000000E+00  0.00000000E+00  0.00000000E+00  0.00000000E+00  6.89990666E-02
  3.16423961E-01  7.44308291E-01  1.00000000E+00  0.00000000E+00  0.00000000E+00
  0.00000000E+00  0.00000000E+00  0.00000000E+00  0.00000000E+00  0.00000000E+00
  6.89990666E-02  3.16423961E-01  7.44308291E-01  1.00000000E+00  0.00000000E+00
  0.00000000E+00  0.00000000E+00  0.00000000E+00  0.00000000E+00  0.00000000E+00
  0.00000000E+00  6.89990666E-02  3.16423961E-01  7.44308291E-01  1.00000000E+00
  0.00000000E+00  0.00000000E+00  0.00000000E+00  0.00000000E+00  0.00000000E+00
  0.00000000E+00  0.00000000E+00  6.89990666E-02  3.16423961E-01  7.44308291E-01
  1.00000000E+00  0.00000000E+00  0.00000000E+00  0.00000000E+00  0.00000000E+00
  0.00000000E+00  0.00000000E+00  0.00000000E+00  6.89990666E-02  3.16423961E-01
  7.44308291E-01  1.00000000E+00  0.00000000E+00  0.00000000E+00  0.00000000E+00
  0.00000000E+00  0.00000000E+00  0.00000000E+00  0.00000000E+00  6.89990666E-02
  3.16423961E-01  7.44308291E-01  1.00000000E+00  0.00000000E+00  0.00000000E+00
  0.00000000E+00  0.00000000E+00  0.00000000E+00  0.00000000E+00  0.00000000E+00
  6.89990666E-02  3.16423961E-01  7.44308291E-01  1.00000000E+00  0.00000000E+00
  0.00000000E+00  0.00000000E+00  0.00000000E+00  0.00000000E+00  0.00000000E+00
  0.00000000E+00  6.89990666E-02  3.16423961E-01  7.44308291E-01  1.00000000E+00
  0.00000000E+00  0.00000000E+00  0.00000000E+00  0.00000000E+00  0.00000000E+00
  0.00000000E+00  0.00000000E+00  6.89990666E-02  3.16423961E-01  7.44308291E-01
  1.00000000E+00  0.00000000E+00  0.00000000E+00  0.00000000E+00  0.00000000E+00
  0.00000000E+00  0.00000000E+00  0.00000000E+00  6.89990666E-02  3.16423961E-01
  7.44308291E-01  1.00000000E+00  0.00000000E+00  0.00000000E+00  0.00000000E+00
  0.00000000E+00  0.00000000E+00  0.00000000E+00  0.00000000E+00  0.00000000E+00
  0.00000000E+00  0.00000000E+00  0.00000000E+00  0.00000000E+00  0.00000000E+00
  0.00000000E+00  0.00000000E+00  0.00000000E+00  0.00000000E+00  0.00000000E+00
  0.00000000E+00  0.00000000E+00  0.00000000E+00  0.00000000E+00  0.00000000E+00
  0.00000000E+00  0.00000000E+00  0.00000000E+00  0.00000000E+00  0.00000000E+00
  0.00000000E+00  0.00000000E+00  0.00000000E+00  0.00000000E+00  0.00000000E+00
  0.00000000E+00  0.00000000E+00  0.00000000E+00  0.00000000E+00  0.00000000E+00
  0.00000000E+00  0.00000000E+00  0.00000000E+00  0.00000000E+00  0.00000000E+00
  0.00000000E+00  0.00000000E+00
Coordinates of each shell                  R   N=         222
 -1.62152593E+00  4.09139653E+00 -9.62709349E-01 -1.62152593E+00  4.09139653E+00
 -9.62709349E-01 -1.62152593E+00  4.09139653E+00 -9.62709349E-01 -1.62152593E+00
  4.09139653E+00 -9.62709349E-01 -1.25369062E+00 -4.02067840E-01  1.30679974E-01
 -1.25369062E+00 -4.02067840E-01  1.30679974E-01 -1.25369062E+00 -4.02067840E-01
  1.30679974E-01 -1.25369062E+00 -4.02067840E-01  1.30679974E-01  1.54160835E+00
 -2.90599628E-01  7.94802316E-02  1.54160835E+00 -2.90599628E-01  7.94802316E-02
  1.54160835E+00 -2.90599628E-01  7.94802316E-02  1.54160835E+00 -2.90599628E-01
  7.94802316E-02 -2.74201918E+00  1.73510943E+00 -4.57956052E-01 -2.74201918E+00
  1.73510943E+00 -4.57956052E-01 -2.74201918E+00  1.73510943E+00 -4.57956052E-01
 -2.74201918E+00  1.73510943E+00 -4.57956052E-01 -2.46139937E+00 -2.69286688E+00
  6.96806458E-01 -2.46139937E+00 -2.69286688E+00  6.96806458E-01 -2.46139937E+00
 -2.69286688E+00  6.96806458E-01 -2.46139937E+00 -2.69286688E+00  6.96806458E-01
  2.91799841E+00 -2.06224354E+00 -1.33839058E+00  2.91799841E+00 -2.06224354E+00
 -1.33839058E+00  2.91799841E+00 -2.06224354E+00 -1.33839058E+00  2.91799841E+00
 -2.06224354E+00 -1.33839058E+00  2.86768664E+00  1.52443199E+00  1.49430088E+00
  2.86768664E+00  1.52443199E+00  1.49430088E+00  2.86768664E+00  1.52443199E+00
  1.49430088E+00  2.86768664E+00  1.52443199E+00  1.49430088E+00 -5.38296004E+00
  1.52820015E+00 -3.74179398E-01 -5.38296004E+00  1.52820015E+00 -3.74179398E-01
 -5.38296004E+00  1.52820015E+00 -3.74179398E-01 -5.38296004E+00  1.52820015E+00
 -3.74179398E-01 -5.08687975E+00 -2.88914311E+00  7.51485529E-01 -5.08687975E+00
 -2.88914311E+00  7.51485529E-01 -5.08687975E+00 -2.88914311E+00  7.51485529E-01
 -5.08687975E+00 -2.88914311E+00  7.51485529E-01 -6.54721533E+00 -7.61829211E-01
  1.99070557E-01 -6.54721533E+00 -7.61829211E-01  1.99070557E-01 -6.54721533E+00
 -7.61829211E-01  1.99070557E-01 -6.54721533E+00 -7.61829211E-01  1.99070557E-01
  5.55447332E+00 -2.02504053E+00 -1.34039115E+00  5.55447332E+00 -2.02504053E+00
 -1.34039115E+00  5.55447332E+00 -2.02504053E+00 -1.34039115E+00  5.55447332E+00
 -2.02504053E+00 -1.34039115E+00  5.50487810E+00  1.56235089E+00  1.48270286E+00
  5.50487810E+00  1.56235089E+00  1.48270286E+00  5.50487810E+00  1.56235089E+00
  1.48270286E+00  5.50487810E+00  1.56235089E+00  1.48270286E+00  6.85573282E+00
 -2.12102094E-01  6.98143636E-02  6.85573282E+00 -2.12102094E-01  6.98143636E-02
  6.85573282E+00 -2.12102094E-01  6.98143636E-02  6.85573282E+00 -2.12102094E-01
  6.98143636E-02 -1.29420525E+00 -4.32202780E+00  1.16067770E+00 -1.29420525E+00
 -4.32202780E+00  1.16067770E+00  1.90081885E+00 -3.45420434E+00 -2.45959263E+00
  1.90081885E+00 -3.45420434E+00 -2.45959263E+00  1.81679190E+00  2.89044983E+00
  2.61411293E+00  1.81679190E+00  2.89044983E+00  2.61411293E+00 -6.52874077E+00
  3.18069416E+00 -8.14306161E-01 -6.52874077E+00  3.18069416E+00 -8.14306161E-01
 -5.98179792E+00 -4.68003074E+00  1.21020949E+00 -5.98179792E+00 -4.68003074E+00
  1.21020949E+00 -8.59917062E+00 -8.72215310E-01  2.39445830E-01 -8.59917062E+00
 -8.72215310E-01  2.39445830E-01  6.59479495E+00 -3.40567211E+00 -2.45241060E+00
  6.59479495E+00 -3.40567211E+00 -2.45241060E+00  6.50785362E+00  2.96837651E+00
  2.59731902E+00  6.50785362E+00  2.96837651E+00  2.59731902E+00  8.91036347E+00
 -1.80401448E-01  6.52897642E-02  8.91036347E+00 -1.80401448E-01  6.52897642E-02
  1.39095532E-01  3.94118914E+00 -1.71470556E+00  1.39095532E-01  3.94118914E+00
 -1.71470556E+00 -2.72440239E+00  5.20886871E+00 -2.06761643E+00 -2.72440239E+00
  5.20886871E+00 -2.06761643E+00
Constraint Structure                       R   N=          72
 -1.62152593E+00  4.09139653E+00 -9.62709349E-01 -1.25369062E+00 -4.02067840E-01
  1.30679974E-01  1.54160835E+00 -2.90599628E-01  7.94802316E-02 -2.74201918E+00
  1.73510943E+00 -4.57956052E-01 -2.46139937E+00 -2.69286688E+00  6.96806458E-01
  2.91799841E+00 -2.06224354E+00 -1.33839058E+00  2.86768664E+00  1.52443199E+00
  1.49430088E+00 -5.38296004E+00  1.52820015E+00 -3.74179398E-01 -5.08687975E+00
 -2.88914311E+00  7.51485529E-01 -6.54721533E+00 -7.61829211E-01  1.99070557E-01
  5.55447332E+00 -2.02504053E+00 -1.34039115E+00  5.50487810E+00  1.56235089E+00
  1.48270286E+00  6.85573282E+00 -2.12102094E-01  6.98143636E-02 -1.29420525E+00
 -4.32202780E+00  1.16067770E+00  1.90081885E+00 -3.45420434E+00 -2.45959263E+00
  1.81679190E+00  2.89044983E+00  2.61411293E+00 -6.52874077E+00  3.18069416E+00
 -8.14306161E-01 -5.98179792E+00 -4.68003074E+00  1.21020949E+00 -8.59917062E+00
 -8.72215310E-01  2.39445830E-01  6.59479495E+00 -3.40567211E+00 -2.45241060E+00
  6.50785362E+00  2.96837651E+00  2.59731902E+00  8.91036347E+00 -1.80401448E-01
  6.52897642E-02  1.39095532E-01  3.94118914E+00 -1.71470556E+00 -2.72440239E+00
  5.20886871E+00 -2.06761643E+00
Num ILSW                                   I              100
ILSW                                       I   N=         100
           0           1           0           0           2           0
           0           0           0           0           0          -1
           0           0           0           0           0           0
           0           0           0           0           1           0
           1           0           0           0           0           0
           0           0      100000           0          -1           0
           0           0           0           0           0           0
           0           0           0           1           1           0
           0           0           1           0           0           0
           0           0           4          40           0           0
           0           0           0           0           0           0
           0           0           0           0           0           0
           0           0           0           0           0           0
           0           0           0           0           0           0
           0           0           0           0           0           0
           0           0           0           0           0           0
           0           0           0           0
Num RLSW                                   I               40
RLSW                                       R   N=          40
  1.00000000E+00  1.00000000E+00  1.00000000E+00  1.00000000E+00  1.00000000E+00
  0.00000000E+00  0.00000000E+00  1.00000000E+00  0.00000000E+00  0.00000000E+00
  0.00000000E+00  0.00000000E+00  1.00000000E+00  0.00000000E+00  0.00000000E+00
  0.00000000E+00  0.00000000E+00  1.00000000E+00  0.00000000E+00  0.00000000E+00
  0.00000000E+00  0.00000000E+00  1.00000000E+00  0.00000000E+00  0.00000000E+00
  0.00000000E+00  0.00000000E+00  1.00000000E+00  0.00000000E+00  0.00000000E+00
  0.00000000E+00  0.00000000E+00  0.00000000E+00  0.00000000E+00  0.00000000E+00
  0.00000000E+00  0.00000000E+00  0.00000000E+00  1.00000000E+00  1.00000000E+00
MxBond                                     I                3
NBond                                      I   N=          24
           3           3           3           3           3           3
           3           3           3           3           3           3
           3           1           1           1           1           1
           1           1           1           1           1           1
IBond                                      I   N=          72
           4          23          24           3           4           5
           2           6           7           1           2           8
           2           9          14           3          11          15
           3          12          16           4          10          17
           5          10          18           8           9          19
           6          13          20           7          13          21
          11          12          22           5           0           0
           6           0           0           7           0           0
           8           0           0           9           0           0
          10           0           0          11           0           0
          12           0           0          13           0           0
           1           0           0           1           0           0
RBond                                      R   N=          72
  1.00000000E+00  1.00000000E+00  1.00000000E+00  1.00000000E+00  1.50000000E+00
  1.50000000E+00  1.00000000E+00  1.50000000E+00  1.50000000E+00  1.00000000E+00
  1.50000000E+00  1.50000000E+00  1.50000000E+00  1.50000000E+00  1.00000000E+00
  1.50000000E+00  1.50000000E+00  1.00000000E+00  1.50000000E+00  1.50000000E+00
  1.00000000E+00  1.50000000E+00  1.50000000E+00  1.00000000E+00  1.50000000E+00
  1.50000000E+00  1.00000000E+00  1.50000000E+00  1.50000000E+00  1.00000000E+00
  1.50000000E+00  1.50000000E+00  1.00000000E+00  1.50000000E+00  1.50000000E+00
  1.00000000E+00  1.50000000E+00  1.50000000E+00  1.00000000E+00  1.00000000E+00
  0.00000000E+00  0.00000000E+00  1.00000000E+00  0.00000000E+00  0.00000000E+00
  1.00000000E+00  0.00000000E+00  0.00000000E+00  1.00000000E+00  0.00000000E+00
  0.00000000E+00  1.00000000E+00  0.00000000E+00  0.00000000E+00  1.00000000E+00
  0.00000000E+00  0.00000000E+00  1.00000000E+00  0.00000000E+00  0.00000000E+00
  1.00000000E+00  0.00000000E+00  0.00000000E+00  1.00000000E+00  0.00000000E+00
  0.00000000E+00  1.00000000E+00  0.00000000E+00  0.00000000E+00  1.00000000E+00
  0.00000000E+00  0.00000000E+00
Virial Ratio                               R      2.002059813102533E+00
SCF Energy                                 R     -5.152766094534518E+02
MP2 Energy                                 R     -5.169630297361157E+02
Total Energy                               R     -5.169630297361157E+02
Post-SCF wavefunction norm                 R      1.797545341885920E+00
RMS Force                                  R      2.463779756232062E-07