opt=Tight                                                               
Freq      RMP2-FC                                                     6-31G(d)            
Number of atoms                            I               14
Info1-9                                    I   N=           9
          23          23        1002           0           0         100
           6           2           1
Charge                                     I               -2
Multiplicity                               I                1
Number of electrons                        I               76
Number of alpha electrons                  I               38
Number of beta electrons                   I               38
Number of basis functions                  I              158
Number of independent functions            I              158
Number of point charges in /Mol/           I                0
Number of translation vectors              I                0
Atomic numbers                             I   N=          14
           8           8           8           8           8           6
           6           6           6           6           1           1
           1           1
Nuclear charges                            R   N=          14
  8.00000000E+00  8.00000000E+00  8.00000000E+00  8.00000000E+00  8.00000000E+00
  6.00000000E+00  6.00000000E+00  6.00000000E+00  6.00000000E+00  6.00000000E+00
  1.00000000E+00  1.00000000E+00  1.00000000E+00  1.00000000E+00
Current cartesian coordinates              R   N=          42
  2.34684863E+00  3.28570709E+00  2.88762691E-02 -4.99144180E+00 -2.31811497E+00
  1.37474657E+00 -7.00019130E+00  7.30204267E-01 -8.81408578E-01  6.55807329E+00
  2.37274706E-01  1.07938959E+00  4.50780101E+00 -2.72034953E+00 -1.30576917E+00
 -2.41193417E-01 -4.47143500E-01 -1.56210087E-01 -2.57353832E+00  1.22284886E+00
 -1.04944014E-01  2.24187202E+00  9.53625493E-01 -6.15826051E-02 -5.07218533E+00
 -2.68055812E-01  1.32963959E-01  4.68668108E+00 -6.65862960E-01 -9.05444224E-02
 -2.06977992E-01 -1.65700731E+00 -1.83664176E+00 -3.01321535E-01 -1.77339814E+00
  1.43556005E+00 -2.66263193E+00  2.41647455E+00 -1.79199792E+00 -2.44760331E+00
  2.52368591E+00  1.50830517E+00
Force Field                                I                0
Int Atom Types                             I   N=          14
           0           0           0           0           0           0
           0           0           0           0           0           0
           0           0
MM charges                                 R   N=          14
  0.00000000E+00  0.00000000E+00  0.00000000E+00  0.00000000E+00  0.00000000E+00
  0.00000000E+00  0.00000000E+00  0.00000000E+00  0.00000000E+00  0.00000000E+00
  0.00000000E+00  0.00000000E+00  0.00000000E+00  0.00000000E+00
Integer atomic weights                     I   N=          14
          16          16          16          16          16          12
          12          12          12          12           1           1
           1           1
Real atomic weights                        R   N=          14
  1.59949146E+01  1.59949146E+01  1.59949146E+01  1.59949146E+01  1.59949146E+01
  1.20000000E+01  1.20000000E+01  1.20000000E+01  1.20000000E+01  1.20000000E+01
  1.00782504E+00  1.00782504E+00  1.00782504E+00  1.00782504E+00
Atom fragment info                         I   N=          14
           0           0           0           0           0           0
           0           0           0           0           0           0
           0           0
Atom residue num                           I   N=          14
           0           0           0           0           0           0
           0           0           0           0           0           0
           0           0
Nuclear spins                              I   N=          14
           0           0           0           0           0           0
           0           0           0           0           1           1
           1           1
Nuclear ZEff                               R   N=          14
 -5.60000000E+00 -5.60000000E+00 -5.60000000E+00 -5.60000000E+00 -5.60000000E+00
 -3.60000000E+00 -3.60000000E+00 -3.60000000E+00 -3.60000000E+00 -3.60000000E+00
 -1.00000000E+00 -1.00000000E+00 -1.00000000E+00 -1.00000000E+00
Nuclear QMom                               R   N=          14
  0.00000000E+00  0.00000000E+00  0.00000000E+00  0.00000000E+00  0.00000000E+00
  0.00000000E+00  0.00000000E+00  0.00000000E+00  0.00000000E+00  0.00000000E+00
  0.00000000E+00  0.00000000E+00  0.00000000E+00  0.00000000E+00
Nuclear GFac                               R   N=          14
  0.00000000E+00  0.00000000E+00  0.00000000E+00  0.00000000E+00  0.00000000E+00
  0.00000000E+00  0.00000000E+00  0.00000000E+00  0.00000000E+00  0.00000000E+00
  2.79284600E+00  2.79284600E+00  2.79284600E+00  2.79284600E+00
MicOpt                                     I   N=          14
          -1          -1          -1          -1          -1          -1
          -1          -1          -1          -1          -1          -1
          -1          -1
Number of contracted shells                I               48
Number of primitive shells                 I              126
Pure/Cartesian d shells                    I                1
Pure/Cartesian f shells                    I                0
Highest angular momentum                   I                2
Largest degree of contraction              I                6
Shell types                                I   N=          48
           0          -1          -1           2           0          -1
          -1           2           0          -1          -1           2
           0          -1          -1           2           0          -1
          -1           2           0          -1          -1           2
           0          -1          -1           2           0          -1
          -1           2           0          -1          -1           2
           0          -1          -1           2           0           0
           0           0           0           0           0           0
Number of primitives per shell             I   N=          48
           6           3           1           1           6           3
           1           1           6           3           1           1
           6           3           1           1           6           3
           1           1           6           3           1           1
           6           3           1           1           6           3
           1           1           6           3           1           1
           6           3           1           1           3           1
           3           1           3           1           3           1
Shell to atom map                          I   N=          48
           1           1           1           1           2           2
           2           2           3           3           3           3
           4           4           4           4           5           5
           5           5           6           6           6           6
           7           7           7           7           8           8
           8           8           9           9           9           9
          10          10          10          10          11          11
          12          12          13          13          14          14
Primitive exponents                        R   N=         126
  5.48467166E+03  8.25234946E+02  1.88046958E+02  5.29645000E+01  1.68975704E+01
  5.79963534E+00  1.55396162E+01  3.59993359E+00  1.01376175E+00  2.70005823E-01
  8.00000000E-01  5.48467166E+03  8.25234946E+02  1.88046958E+02  5.29645000E+01
  1.68975704E+01  5.79963534E+00  1.55396162E+01  3.59993359E+00  1.01376175E+00
  2.70005823E-01  8.00000000E-01  5.48467166E+03  8.25234946E+02  1.88046958E+02
  5.29645000E+01  1.68975704E+01  5.79963534E+00  1.55396162E+01  3.59993359E+00
  1.01376175E+00  2.70005823E-01  8.00000000E-01  5.48467166E+03  8.25234946E+02
  1.88046958E+02  5.29645000E+01  1.68975704E+01  5.79963534E+00  1.55396162E+01
  3.59993359E+00  1.01376175E+00  2.70005823E-01  8.00000000E-01  5.48467166E+03
  8.25234946E+02  1.88046958E+02  5.29645000E+01  1.68975704E+01  5.79963534E+00
  1.55396162E+01  3.59993359E+00  1.01376175E+00  2.70005823E-01  8.00000000E-01
  3.04752488E+03  4.57369518E+02  1.03948685E+02  2.92101553E+01  9.28666296E+00
  3.16392696E+00  7.86827235E+00  1.88128854E+00  5.44249258E-01  1.68714478E-01
  8.00000000E-01  3.04752488E+03  4.57369518E+02  1.03948685E+02  2.92101553E+01
  9.28666296E+00  3.16392696E+00  7.86827235E+00  1.88128854E+00  5.44249258E-01
  1.68714478E-01  8.00000000E-01  3.04752488E+03  4.57369518E+02  1.03948685E+02
  2.92101553E+01  9.28666296E+00  3.16392696E+00  7.86827235E+00  1.88128854E+00
  5.44249258E-01  1.68714478E-01  8.00000000E-01  3.04752488E+03  4.57369518E+02
  1.03948685E+02  2.92101553E+01  9.28666296E+00  3.16392696E+00  7.86827235E+00
  1.88128854E+00  5.44249258E-01  1.68714478E-01  8.00000000E-01  3.04752488E+03
  4.57369518E+02  1.03948685E+02  2.92101553E+01  9.28666296E+00  3.16392696E+00
  7.86827235E+00  1.88128854E+00  5.44249258E-01  1.68714478E-01  8.00000000E-01
  1.87311370E+01  2.82539436E+00  6.40121692E-01  1.61277759E-01  1.87311370E+01
  2.82539436E+00  6.40121692E-01  1.61277759E-01  1.87311370E+01  2.82539436E+00
  6.40121692E-01  1.61277759E-01  1.87311370E+01  2.82539436E+00  6.40121692E-01
  1.61277759E-01
Contraction coefficients                   R   N=         126
  1.83107443E-03  1.39501722E-02  6.84450781E-02  2.32714336E-01  4.70192898E-01
  3.58520853E-01 -1.10777550E-01 -1.48026263E-01  1.13076702E+00  1.00000000E+00
  1.00000000E+00  1.83107443E-03  1.39501722E-02  6.84450781E-02  2.32714336E-01
  4.70192898E-01  3.58520853E-01 -1.10777550E-01 -1.48026263E-01  1.13076702E+00
  1.00000000E+00  1.00000000E+00  1.83107443E-03  1.39501722E-02  6.84450781E-02
  2.32714336E-01  4.70192898E-01  3.58520853E-01 -1.10777550E-01 -1.48026263E-01
  1.13076702E+00  1.00000000E+00  1.00000000E+00  1.83107443E-03  1.39501722E-02
  6.84450781E-02  2.32714336E-01  4.70192898E-01  3.58520853E-01 -1.10777550E-01
 -1.48026263E-01  1.13076702E+00  1.00000000E+00  1.00000000E+00  1.83107443E-03
  1.39501722E-02  6.84450781E-02  2.32714336E-01  4.70192898E-01  3.58520853E-01
 -1.10777550E-01 -1.48026263E-01  1.13076702E+00  1.00000000E+00  1.00000000E+00
  1.83473713E-03  1.40373228E-02  6.88426223E-02  2.32184443E-01  4.67941348E-01
  3.62311985E-01 -1.19332420E-01 -1.60854152E-01  1.14345644E+00  1.00000000E+00
  1.00000000E+00  1.83473713E-03  1.40373228E-02  6.88426223E-02  2.32184443E-01
  4.67941348E-01  3.62311985E-01 -1.19332420E-01 -1.60854152E-01  1.14345644E+00
  1.00000000E+00  1.00000000E+00  1.83473713E-03  1.40373228E-02  6.88426223E-02
  2.32184443E-01  4.67941348E-01  3.62311985E-01 -1.19332420E-01 -1.60854152E-01
  1.14345644E+00  1.00000000E+00  1.00000000E+00  1.83473713E-03  1.40373228E-02
  6.88426223E-02  2.32184443E-01  4.67941348E-01  3.62311985E-01 -1.19332420E-01
 -1.60854152E-01  1.14345644E+00  1.00000000E+00  1.00000000E+00  1.83473713E-03
  1.40373228E-02  6.88426223E-02  2.32184443E-01  4.67941348E-01  3.62311985E-01
 -1.19332420E-01 -1.60854152E-01  1.14345644E+00  1.00000000E+00  1.00000000E+00
  3.34946043E-02  2.34726953E-01  8.13757326E-01  1.00000000E+00  3.34946043E-02
  2.34726953E-01  8.13757326E-01  1.00000000E+00  3.34946043E-02  2.34726953E-01
  8.13757326E-01  1.00000000E+00  3.34946043E-02  2.34726953E-01  8.13757326E-01
  1.00000000E+00
P(S=P) Contraction coefficients            R   N=         126
  0.00000000E+00  0.00000000E+00  0.00000000E+00  0.00000000E+00  0.00000000E+00
  0.00000000E+00  7.08742682E-02  3.39752839E-01  7.27158577E-01  1.00000000E+00
  0.00000000E+00  0.00000000E+00  0.00000000E+00  0.00000000E+00  0.00000000E+00
  0.00000000E+00  0.00000000E+00  7.08742682E-02  3.39752839E-01  7.27158577E-01
  1.00000000E+00  0.00000000E+00  0.00000000E+00  0.00000000E+00  0.00000000E+00
  0.00000000E+00  0.00000000E+00  0.00000000E+00  7.08742682E-02  3.39752839E-01
  7.27158577E-01  1.00000000E+00  0.00000000E+00  0.00000000E+00  0.00000000E+00
  0.00000000E+00  0.00000000E+00  0.00000000E+00  0.00000000E+00  7.08742682E-02
  3.39752839E-01  7.27158577E-01  1.00000000E+00  0.00000000E+00  0.00000000E+00
  0.00000000E+00  0.00000000E+00  0.00000000E+00  0.00000000E+00  0.00000000E+00
  7.08742682E-02  3.39752839E-01  7.27158577E-01  1.00000000E+00  0.00000000E+00
  0.00000000E+00  0.00000000E+00  0.00000000E+00  0.00000000E+00  0.00000000E+00
  0.00000000E+00  6.89990666E-02  3.16423961E-01  7.44308291E-01  1.00000000E+00
  0.00000000E+00  0.00000000E+00  0.00000000E+00  0.00000000E+00  0.00000000E+00
  0.00000000E+00  0.00000000E+00  6.89990666E-02  3.16423961E-01  7.44308291E-01
  1.00000000E+00  0.00000000E+00  0.00000000E+00  0.00000000E+00  0.00000000E+00
  0.00000000E+00  0.00000000E+00  0.00000000E+00  6.89990666E-02  3.16423961E-01
  7.44308291E-01  1.00000000E+00  0.00000000E+00  0.00000000E+00  0.00000000E+00
  0.00000000E+00  0.00000000E+00  0.00000000E+00  0.00000000E+00  6.89990666E-02
  3.16423961E-01  7.44308291E-01  1.00000000E+00  0.00000000E+00  0.00000000E+00
  0.00000000E+00  0.00000000E+00  0.00000000E+00  0.00000000E+00  0.00000000E+00
  6.89990666E-02  3.16423961E-01  7.44308291E-01  1.00000000E+00  0.00000000E+00
  0.00000000E+00  0.00000000E+00  0.00000000E+00  0.00000000E+00  0.00000000E+00
  0.00000000E+00  0.00000000E+00  0.00000000E+00  0.00000000E+00  0.00000000E+00
  0.00000000E+00  0.00000000E+00  0.00000000E+00  0.00000000E+00  0.00000000E+00
  0.00000000E+00
Coordinates of each shell                  R   N=         144
  2.34684863E+00  3.28570709E+00  2.88762691E-02  2.34684863E+00  3.28570709E+00
  2.88762691E-02  2.34684863E+00  3.28570709E+00  2.88762691E-02  2.34684863E+00
  3.28570709E+00  2.88762691E-02 -4.99144180E+00 -2.31811497E+00  1.37474657E+00
 -4.99144180E+00 -2.31811497E+00  1.37474657E+00 -4.99144180E+00 -2.31811497E+00
  1.37474657E+00 -4.99144180E+00 -2.31811497E+00  1.37474657E+00 -7.00019130E+00
  7.30204267E-01 -8.81408578E-01 -7.00019130E+00  7.30204267E-01 -8.81408578E-01
 -7.00019130E+00  7.30204267E-01 -8.81408578E-01 -7.00019130E+00  7.30204267E-01
 -8.81408578E-01  6.55807329E+00  2.37274706E-01  1.07938959E+00  6.55807329E+00
  2.37274706E-01  1.07938959E+00  6.55807329E+00  2.37274706E-01  1.07938959E+00
  6.55807329E+00  2.37274706E-01  1.07938959E+00  4.50780101E+00 -2.72034953E+00
 -1.30576917E+00  4.50780101E+00 -2.72034953E+00 -1.30576917E+00  4.50780101E+00
 -2.72034953E+00 -1.30576917E+00  4.50780101E+00 -2.72034953E+00 -1.30576917E+00
 -2.41193417E-01 -4.47143500E-01 -1.56210087E-01 -2.41193417E-01 -4.47143500E-01
 -1.56210087E-01 -2.41193417E-01 -4.47143500E-01 -1.56210087E-01 -2.41193417E-01
 -4.47143500E-01 -1.56210087E-01 -2.57353832E+00  1.22284886E+00 -1.04944014E-01
 -2.57353832E+00  1.22284886E+00 -1.04944014E-01 -2.57353832E+00  1.22284886E+00
 -1.04944014E-01 -2.57353832E+00  1.22284886E+00 -1.04944014E-01  2.24187202E+00
  9.53625493E-01 -6.15826051E-02  2.24187202E+00  9.53625493E-01 -6.15826051E-02
  2.24187202E+00  9.53625493E-01 -6.15826051E-02  2.24187202E+00  9.53625493E-01
 -6.15826051E-02 -5.07218533E+00 -2.68055812E-01  1.32963959E-01 -5.07218533E+00
 -2.68055812E-01  1.32963959E-01 -5.07218533E+00 -2.68055812E-01  1.32963959E-01
 -5.07218533E+00 -2.68055812E-01  1.32963959E-01  4.68668108E+00 -6.65862960E-01
 -9.05444224E-02  4.68668108E+00 -6.65862960E-01 -9.05444224E-02  4.68668108E+00
 -6.65862960E-01 -9.05444224E-02  4.68668108E+00 -6.65862960E-01 -9.05444224E-02
 -2.06977992E-01 -1.65700731E+00 -1.83664176E+00 -2.06977992E-01 -1.65700731E+00
 -1.83664176E+00 -3.01321535E-01 -1.77339814E+00  1.43556005E+00 -3.01321535E-01
 -1.77339814E+00  1.43556005E+00 -2.66263193E+00  2.41647455E+00 -1.79199792E+00
 -2.66263193E+00  2.41647455E+00 -1.79199792E+00 -2.44760331E+00  2.52368591E+00
  1.50830517E+00 -2.44760331E+00  2.52368591E+00  1.50830517E+00
Constraint Structure                       R   N=          42
  2.34684863E+00  3.28570709E+00  2.88762691E-02 -4.99144180E+00 -2.31811497E+00
  1.37474657E+00 -7.00019130E+00  7.30204267E-01 -8.81408578E-01  6.55807329E+00
  2.37274706E-01  1.07938959E+00  4.50780101E+00 -2.72034953E+00 -1.30576917E+00
 -2.41193417E-01 -4.47143500E-01 -1.56210087E-01 -2.57353832E+00  1.22284886E+00
 -1.04944014E-01  2.24187202E+00  9.53625493E-01 -6.15826051E-02 -5.07218533E+00
 -2.68055812E-01  1.32963959E-01  4.68668108E+00 -6.65862960E-01 -9.05444224E-02
 -2.06977992E-01 -1.65700731E+00 -1.83664176E+00 -3.01321535E-01 -1.77339814E+00
  1.43556005E+00 -2.66263193E+00  2.41647455E+00 -1.79199792E+00 -2.44760331E+00
  2.52368591E+00  1.50830517E+00
Num ILSW                                   I              100
ILSW                                       I   N=         100
           0           1           0           0           2           0
           0           0           0           0           0          -1
           0           0           0           0           0           0
           0           0           0           0           1           0
           1           0           0           0           0           0
           0           0      100000           0          -1           0
           0           0           0           0           0           0
           0           0           0           1           1           0
           0           0           1           0           0           0
           0           0           4          40           0           0
           0           0           0           0           0           0
           0           0           0           0           0           0
           0           0           0           0           0           0
           0           0           0           0           0           0
           0           0           0           0           0           0
           0           0           0           0           0           0
           0           0           0           0
Num RLSW                                   I               40
RLSW                                       R   N=          40
  1.00000000E+00  1.00000000E+00  1.00000000E+00  1.00000000E+00  1.00000000E+00
  0.00000000E+00  0.00000000E+00  1.00000000E+00  0.00000000E+00  0.00000000E+00
  0.00000000E+00  0.00000000E+00  1.00000000E+00  0.00000000E+00  0.00000000E+00
  0.00000000E+00  0.00000000E+00  1.00000000E+00  0.00000000E+00  0.00000000E+00
  0.00000000E+00  0.00000000E+00  1.00000000E+00  0.00000000E+00  0.00000000E+00
  0.00000000E+00  0.00000000E+00  1.00000000E+00  0.00000000E+00  0.00000000E+00
  0.00000000E+00  0.00000000E+00  0.00000000E+00  0.00000000E+00  0.00000000E+00
  0.00000000E+00  0.00000000E+00  0.00000000E+00  1.00000000E+00  1.00000000E+00
MxBond                                     I                4
NBond                                      I   N=          14
           1           1           1           1           1           4
           4           3           3           3           1           1
           1           1
IBond                                      I   N=          56
           8           0           0           0           9           0
           0           0           9           0           0           0
          10           0           0           0          10           0
           0           0           7           8          11          12
           6           9          13          14           1           6
          10           0           2           3           7           0
           4           5           8           0           6           0
           0           0           6           0           0           0
           7           0           0           0           7           0
           0           0
RBond                                      R   N=          56
  2.00000000E+00  0.00000000E+00  0.00000000E+00  0.00000000E+00  2.00000000E+00
  0.00000000E+00  0.00000000E+00  0.00000000E+00  2.00000000E+00  0.00000000E+00
  0.00000000E+00  0.00000000E+00  2.00000000E+00  0.00000000E+00  0.00000000E+00
  0.00000000E+00  2.00000000E+00  0.00000000E+00  0.00000000E+00  0.00000000E+00
  1.00000000E+00  1.00000000E+00  1.00000000E+00  1.00000000E+00  1.00000000E+00
  1.00000000E+00  1.00000000E+00  1.00000000E+00  2.00000000E+00  1.00000000E+00
  1.00000000E+00  0.00000000E+00  2.00000000E+00  2.00000000E+00  1.00000000E+00
  0.00000000E+00  2.00000000E+00  2.00000000E+00  1.00000000E+00  0.00000000E+00
  1.00000000E+00  0.00000000E+00  0.00000000E+00  0.00000000E+00  1.00000000E+00
  0.00000000E+00  0.00000000E+00  0.00000000E+00  1.00000000E+00  0.00000000E+00
  0.00000000E+00  0.00000000E+00  1.00000000E+00  0.00000000E+00  0.00000000E+00
  0.00000000E+00
Virial Ratio                               R      2.003007409611641E+00
SCF Energy                                 R     -5.662346473502030E+02
MP2 Energy                                 R     -5.677598553386970E+02
Total Energy                               R     -5.677598553386970E+02
Post-SCF wavefunction norm                 R      1.711641534279289E+00
RMS Force                                  R      1.017575430602706E-05
RMS Density                                R      2.679544620576561E-09
External E-field                           R   N=          35
  0.00000000E+00  0.00000000E+00  0.00000000E+00  0.00000000E+00  0.00000000E+00
  0.00000000E+00  0.00000000E+00  0.00000000E+00  0.00000000E+00  0.00000000E+00
  0.00000000E+00  0.00000000E+00  0.00000000E+00  0.00000000E+00  0.00000000E+00
  0.00000000E+00  0.00000000E+00  0.00000000E+00  0.00000000E+00  0.00000000E+00
  0.00000000E+00  0.00000000E+00  0.00000000E+00  0.00000000E+00  0.00000000E+00
  0.00000000E+00  0.00000000E+00  0.00000000E+00  0.00000000E+00  0.00000000E+00
  0.00000000E+00  0.00000000E+00  0.00000000E+00  0.00000000E+00  0.00000000E+00
IOpCl                                      I                0
IROHF                                      I                0
Alpha Orbital Energies                     R   N=         158
 -2.05477756E+01 -2.04822312E+01 -2.04807323E+01 -2.04607054E+01 -2.04593922E+01
 -1.13232504E+01 -1.13163246E+01 -1.13042679E+01 -1.12121260E+01 -1.12004485E+01
 -1.37047671E+00 -1.33546067E+00 -1.32474171E+00 -1.24576159E+00 -1.22317555E+00
 -1.03721328E+00 -9.09331736E-01 -8.03562414E-01 -6.89131775E-01 -6.69186448E-01
 -6.30590296E-01 -6.17224814E-01 -6.15095473E-01 -5.78591638E-01 -5.69459462E-01
 -5.51224043E-01 -5.44183819E-01 -5.21013976E-01 -4.88353612E-01 -4.78518438E-01
 -4.62713054E-01 -4.53232622E-01 -3.91634997E-01 -3.75409904E-01 -3.71736922E-01
 -3.65682347E-01 -3.58621614E-01 -3.49781650E-01  1.41990007E-01  2.53575969E-01
  2.77098569E-01  2.84708097E-01  3.12953832E-01  3.33608545E-01  3.97416646E-01
  4.32658452E-01  4.42461305E-01  4.72535541E-01  5.00304655E-01  5.12665406E-01
  5.57162791E-01  6.14675746E-01  6.24683983E-01  6.79565676E-01  7.73736458E-01
  7.85213800E-01  8.20873422E-01  8.35936990E-01  8.62333625E-01  8.88321673E-01
  8.89218104E-01  9.05280367E-01  9.29610045E-01  9.39684569E-01  9.67167168E-01
  9.88187863E-01  9.93289386E-01  1.03234955E+00  1.08057304E+00  1.09684538E+00
  1.12160167E+00  1.13709794E+00  1.14319640E+00  1.15385428E+00  1.16681628E+00
  1.18758538E+00  1.20659368E+00  1.22175842E+00  1.24234140E+00  1.25926726E+00
  1.28143340E+00  1.30734191E+00  1.33477961E+00  1.36408669E+00  1.36846353E+00
  1.40106363E+00  1.41744455E+00  1.42269273E+00  1.43321840E+00  1.45267843E+00
  1.48989531E+00  1.51066262E+00  1.64404313E+00  1.71514400E+00  1.73727331E+00
  1.77070692E+00  1.80793265E+00  1.83774469E+00  1.85210742E+00  1.91115336E+00
  1.93983718E+00  1.96512591E+00  2.00815805E+00  2.02841465E+00  2.06306123E+00
  2.10148347E+00  2.11731885E+00  2.14205429E+00  2.16147141E+00  2.17132884E+00
  2.17732781E+00  2.19626320E+00  2.21377788E+00  2.21744413E+00  2.24745011E+00
  2.26820319E+00  2.27828394E+00  2.30175464E+00  2.31347004E+00  2.33602875E+00
  2.34185860E+00  2.36681396E+00  2.40239808E+00  2.45172831E+00  2.47925099E+00
  2.51120235E+00  2.63279704E+00  2.66515466E+00  2.68590385E+00  2.72046402E+00
  2.80792688E+00  2.83270714E+00  2.89568122E+00  2.91941673E+00  2.94915997E+00
  3.01137187E+00  3.07466167E+00  3.09475388E+00  3.15022155E+00  3.22209974E+00
  3.25757409E+00  3.30056664E+00  3.32359552E+00  3.33570182E+00  3.39052801E+00
  3.46712616E+00  3.53572119E+00  3.57196805E+00  4.25649612E+00  4.32814974E+00
  4.41546850E+00  4.53329840E+00  4.64962535E+00  4.70104756E+00  4.74478148E+00
  4.81997905E+00  4.96214403E+00  5.04434801E+00
Alpha MO coefficients                      R   N=       24964
  9.94690086E-01  2.09111055E-02 -6.76102702E-05 -1.39257098E-03 -6.55825159E-05
  4.60406891E-03  5.95175994E-06  1.37809905E-05  4.89019697E-06 -3.89283903E-03
 -3.68120671E-03 -4.17959272E-03  1.17516093E-05  1.05075407E-05  1.75963736E-05
 -2.28904866E-08  1.31254378E-06 -7.41857681E-07  6.20039797E-07 -1.29046537E-06
  1.55408982E-05  1.68570269E-05  6.61291590E-06  1.75102396E-06 -5.31984562E-07
  2.88346991E-06  4.12602298E-06  2.58264216E-06 -1.72987671E-06  2.29392991E-06
  3.69294092E-06  1.65524562E-05  4.39904452E-07 -8.53024526E-07  2.00889389E-06
 -9.38637627E-05 -1.24282516E-05  1.60824192E-05 -1.72124050E-05  1.08974360E-05
  9.95581630E-06  1.17211797E-05  7.79462549E-07 -2.39244703E-06  2.51118967E-06
 -3.01333775E-05  3.47572533E-06 -1.42591874E-06  9.28254667E-06  1.38858063E-06
 -2.87873691E-05 -1.11508020E-06 -9.58048214E-06  1.69411502E-05  1.26127786E-05
  9.29127472E-06  5.41425650E-06 -1.60839265E-06 -7.67623189E-06 -6.98838003E-06
  1.32775555E-05  2.14189599E-05 -2.64893931E-06  9.56445710E-06  2.88610591E-06
 -4.95306929E-05  2.80744252E-05 -2.79528135E-05  9.62247426E-06  2.27217388E-06
  6.10566410E-06  2.07052615E-05  2.01052080E-05  1.03284642E-05  1.91331719E-06
 -1.65991816E-06  1.04981191E-05 -6.42224049E-06 -2.24759322E-05  8.34377210E-07
 -1.61622790E-04 -2.12933934E-04 -4.97474742E-07 -2.43061054E-05  1.28240322E-05
 -4.43206213E-05 -2.18127672E-05 -3.59832627E-05  6.66679724E-07 -1.42273883E-06
 -1.26641665E-06 -9.06741978E-07  9.39986853E-06  1.48767233E-05 -5.30474843E-06
  7.43749961E-05 -1.31662065E-04 -3.73270008E-05  5.27775233E-05 -1.71432430E-07
 -1.26569048E-05 -5.43093360E-06  1.36166643E-05 -1.87355031E-06 -1.63083701E-06
 -6.78496477E-06  4.47069416E-04  8.83233009E-06  1.47617311E-05  7.29654537E-07
 -1.39591893E-04 -1.31439467E-04 -6.72937977E-04 -1.96168164E-05 -5.59998231E-05
 -6.83816548E-04 -5.19503110E-05 -2.60687503E-05 -2.73492027E-07 -2.93783881E-05
  4.56251160E-06  2.17241133E-05 -7.90377070E-07 -2.93174174E-06 -2.15834304E-06
 -1.26498480E-04 -1.32738559E-04 -8.77897791E-06 -2.04414391E-05  2.02584177E-06
  3.03449632E-06  9.35541676E-06 -4.20463515E-06 -4.24378962E-07  2.50533532E-06
  1.95835030E-06  2.00657035E-05  1.90689776E-05 -1.77517712E-05  7.15092433E-07
 -1.13250872E-04  6.67485958E-05  1.57374157E-05 -2.45208139E-05  2.22796868E-05
 -4.39877378E-05 -1.02190542E-05  2.85661754E-05  7.78153180E-06 -3.33741136E-06
  4.31748272E-06 -2.44850392E-05  1.23413133E-05 -2.01422362E-05  2.03578409E-05
 -8.71470766E-06  2.02991984E-05 -6.52129641E-05 -1.56557472E-05 -1.82255579E-05
  7.95809573E-08 -1.13808772E-05  4.56488739E-06  1.67940191E-04 -4.86341754E-06
 -5.94222425E-05 -1.38822906E-05 -1.92396864E-05  9.51288864E-06 -1.49203781E-05
  1.63834987E-05 -3.44570091E-06  2.35403895E-06  5.97241869E-07  3.86140568E-06
  2.93997085E-06 -2.68729176E-07 -1.02979937E-06 -1.08313191E-05 -8.87439784E-06
 -2.23656592E-06  5.67132589E-06  2.73445206E-06  3.32568165E-06  4.18804100E-06
 -8.11130180E-08  1.39580897E-06  2.28977782E-06  1.05789311E-06  8.52955018E-06
  3.14991441E-07  1.14334982E-06  4.07814229E-07 -5.11923651E-05 -1.74971475E-05
  7.37629877E-07 -6.33868862E-06  2.81078313E-06  6.04000112E-06  6.13169023E-06
  1.15086384E-06 -1.93749963E-06 -3.38509093E-07 -1.07608185E-02 -2.79100851E-04
 -9.49662502E-06  2.89907518E-05  1.38481085E-05  2.79433375E-04 -1.51983926E-04
 -3.06298713E-05 -7.13458745E-05  1.23601924E-04 -6.23513292E-05 -3.03368122E-05
 -2.54536049E-05  4.96008265E-05 -3.11427724E-05  9.94636450E-01  2.09939942E-02
  1.01633941E-04  1.11775305E-03  6.57785690E-04  4.13408556E-03 -7.29292394E-06
 -1.65957222E-04 -7.80664318E-05 -3.89091580E-03 -3.83216950E-03 -3.96084213E-03
 -2.12578495E-05  4.06016827E-05  1.28355129E-04 -3.05282895E-07  5.46670127E-06
  2.09227101E-05 -1.10335945E-05  6.41168110E-06  4.50243266E-05 -2.67397594E-04
  6.31028941E-05 -5.06474991E-05 -1.00002151E-05 -2.78395500E-07 -5.50956366E-06
 -1.54730065E-05  3.30213689E-06 -9.43883647E-07  4.93819856E-06  2.72669762E-05
 -6.65607642E-06  5.98818081E-06  2.08527727E-06 -2.60328234E-04 -4.99342285E-05
  7.11251171E-05  9.48213963E-06 -2.12535227E-08  1.74199595E-07  8.87359969E-06
  5.77292186E-06  2.02839040E-06 -1.69417016E-06 -4.49899116E-06  5.35800154E-06
 -2.07647528E-05  2.01568593E-05  8.12598277E-06 -8.10350448E-06 -1.06530915E-04
 -1.60318018E-04  1.54036718E-05 -2.03755229E-06 -7.83615221E-05 -1.97885927E-05
  4.79093481E-05  2.08193054E-05 -1.51246348E-05  1.09513922E-06  1.80927836E-06
  2.63150504E-06  2.83702065E-07  4.82420876E-07  5.59294440E-05  4.33382840E-07
  2.58290301E-05 -1.84718530E-05  4.60436357E-06  2.67933209E-06  3.53986776E-06
 -2.66469552E-07  2.65083454E-06 -1.87903121E-06 -8.47904536E-06  4.99246861E-04
 -2.80183332E-05 -1.24305809E-04 -8.28725914E-05 -3.81561111E-04 -1.51569047E-04
  2.14376877E-04  4.59989501E-05 -7.15986207E-05 -4.41829093E-04 -2.10016531E-04
 -8.49201267E-05 -5.06969631E-05 -2.80235020E-04  3.35288469E-05 -1.20330982E-04