
    -----------------------------------------------------------------------
          Psi4: An Open-Source Ab Initio Electronic Structure Package
                               Psi4 1.4a3.dev225 

                         Git: Rev {master} 7105e37 


    D. G. A. Smith, L. A. Burns, A. C. Simmonett, R. M. Parrish,
    M. C. Schieber, R. Galvelis, P. Kraus, H. Kruse, R. Di Remigio,
    A. Alenaizan, A. M. James, S. Lehtola, J. P. Misiewicz, M. Scheurer,
    R. A. Shaw, J. B. Schriber, Y. Xie, Z. L. Glick, D. A. Sirianni,
    J. S. O'Brien, J. M. Waldrop, A. Kumar, E. G. Hohenstein,
    B. P. Pritchard, B. R. Brooks, H. F. Schaefer III, A. Yu. Sokolov,
    K. Patkowski, A. E. DePrince III, U. Bozkaya, R. A. King,
    F. A. Evangelista, J. M. Turney, T. D. Crawford, C. D. Sherrill,
    J. Chem. Phys. 152(18) 184108 (2020). https://doi.org/10.1063/5.0006002

                            Additional Code Authors
    E. T. Seidl, C. L. Janssen, E. F. Valeev, M. L. Leininger,
    J. F. Gonthier, R. M. Richard, H. R. McAlexander, M. Saitow, X. Wang,
    P. Verma, and M. H. Lechner

             Previous Authors, Complete List of Code Contributors,
                       and Citations for Specific Modules
    https://github.com/psi4/psi4/blob/master/codemeta.json
    https://github.com/psi4/psi4/graphs/contributors
    http://psicode.org/psi4manual/master/introduction.html#citing-psifour

    -----------------------------------------------------------------------


    Psi4 started on: Saturday, 20 March 2021 08:11AM

    Process ID: 144149
    Host:       c445-062.stampede2.tacc.utexas.edu
    PSIDATADIR: /home1/07844/xy3866/miniconda3/envs/p4env/share/psi4
    Memory:     500.0 MiB
    Threads:    32
    
  ==> Input File <==

--------------------------------------------------------------------------
#psi4
#
memory 32 gb

molecule  {
0 1
  O        0.8586560    -1.1799710    -0.8389030
  C       -0.6220090     0.2405930     0.4084700
  C       -1.1011690     1.3295070    -0.5625920
  C       -1.6147530    -0.9146890     0.4753170
  C        0.7638352    -0.2466228    -0.0607929
  C        1.9534160     0.5043800     0.4706610
  H       -0.5088060     0.6902670     1.4041320
  H       -1.2062520     0.9086330    -1.5670350
  H       -2.0743030     1.7168190    -0.2469230
  H       -0.4032100     2.1709140    -0.6131640
  H       -1.2799510    -1.6832910     1.1776610
  H       -1.7123230    -1.3800890    -0.5076340
  H       -2.5969660    -0.5569830     0.7981250
  H        1.8130240     1.5867940     0.3929810
  H        2.8429500     0.2000390    -0.0822420
  H        2.0885060     0.2697440     1.5324280
units angstrom
no_reorient  #important for SAPT in psi4, default
symmetry c1  #important for SAPT in psi4, default
}

set PROPERTIES_ORIGIN ["COM"]
properties('MP2/aug-cc-pvtz', properties = ['dipole'])
--------------------------------------------------------------------------

  Memory set to  29.802 GiB by Python driver.
    SCF Algorithm Type (re)set to DF.

*** tstart() called on c445-062.stampede2.tacc.utexas.edu
*** at Sat Mar 20 08:11:48 2021

   => Loading Basis Set <=

    Name: AUG-CC-PVTZ
    Role: ORBITAL
    Keyword: BASIS
    atoms 1    entry O          line   331 file /home1/07844/xy3866/miniconda3/envs/p4env/share/psi4/basis/aug-cc-pvtz.gbs 
    atoms 2-6  entry C          line   239 file /home1/07844/xy3866/miniconda3/envs/p4env/share/psi4/basis/aug-cc-pvtz.gbs 
    atoms 7-16 entry H          line    40 file /home1/07844/xy3866/miniconda3/envs/p4env/share/psi4/basis/aug-cc-pvtz.gbs 


         ---------------------------------------------------------
                                   SCF
               by Justin Turney, Rob Parrish, Andy Simmonett
                          and Daniel G. A. Smith
                              RHF Reference
                       32 Threads,  30517 MiB Core
         ---------------------------------------------------------

  ==> Geometry <==

    Molecular point group: c1
    Full point group: C1

    Geometry (in Angstrom), charge = 0, multiplicity = 1:

       Center              X                  Y                   Z               Mass       
    ------------   -----------------  -----------------  -----------------  -----------------
         O            0.821189344780    -1.133940700115    -0.811726243894    15.994914619570
         C           -0.659475655220     0.286623299885     0.435646756106    12.000000000000
         C           -1.138635655220     1.375537299885    -0.535415243894    12.000000000000
         C           -1.652219655220    -0.868658700115     0.502493756106    12.000000000000
         C            0.726368544780    -0.200592500115    -0.033616143894    12.000000000000
         C            1.915949344780     0.550410299885     0.497837756106    12.000000000000
         H           -0.546272655220     0.736297299885     1.431308756106     1.007825032230
         H           -1.243718655220     0.954663299885    -1.539858243894     1.007825032230
         H           -2.111769655220     1.762849299885    -0.219746243894     1.007825032230
         H           -0.440676655220     2.216944299885    -0.585987243894     1.007825032230
         H           -1.317417655220    -1.637260700115     1.204837756106     1.007825032230
         H           -1.749789655220    -1.334058700115    -0.480457243894     1.007825032230
         H           -2.634432655220    -0.510952700115     0.825301756106     1.007825032230
         H            1.775557344780     1.632824299885     0.420157756106     1.007825032230
         H            2.805483344780     0.246069299885    -0.055065243894     1.007825032230
         H            2.051039344780     0.315774299885     1.559604756106     1.007825032230

  Running in c1 symmetry.

  Rotational constants: A =      0.15839  B =      0.09333  C =      0.07551 [cm^-1]
  Rotational constants: A =   4748.43930  B =   2797.99011  C =   2263.62622 [MHz]
  Nuclear repulsion =  244.701476868808840

  Charge       = 0
  Multiplicity = 1
  Electrons    = 48
  Nalpha       = 24
  Nbeta        = 24

  ==> Algorithm <==

  SCF Algorithm Type is DF.
  DIIS enabled.
  MOM disabled.
  Fractional occupation disabled.
  Guess Type is SAD.
  Energy threshold   = 1.00e-10
  Density threshold  = 1.00e-10
  Integral threshold = 1.00e-12

  ==> Primary Basis <==

  Basis Set: AUG-CC-PVTZ
    Blend: AUG-CC-PVTZ
    Number of shells: 174
    Number of basis functions: 506
    Number of Cartesian functions: 580
    Spherical Harmonics?: true
    Max angular momentum: 3

   => Loading Basis Set <=

    Name: (AUG-CC-PVTZ AUX)
    Role: JKFIT
    Keyword: DF_BASIS_SCF
    atoms 1    entry O          line   286 file /home1/07844/xy3866/miniconda3/envs/p4env/share/psi4/basis/aug-cc-pvtz-jkfit.gbs 
    atoms 2-6  entry C          line   162 file /home1/07844/xy3866/miniconda3/envs/p4env/share/psi4/basis/aug-cc-pvtz-jkfit.gbs 
    atoms 7-16 entry H          line    70 file /home1/07844/xy3866/miniconda3/envs/p4env/share/psi4/basis/aug-cc-pvtz-jkfit.gbs 

  ==> Integral Setup <==

  DFHelper Memory: AOs need 2.117 GiB; user supplied 22.352 GiB. Using in-core AOs.

  ==> MemDFJK: Density-Fitted J/K Matrices <==

    J tasked:                   Yes
    K tasked:                   Yes
    wK tasked:                   No
    OpenMP threads:              32
    Memory [MiB]:             22888
    Algorithm:                 Core
    Schwarz Cutoff:           1E-12
    Mask sparsity (%):       3.5050
    Fitting Condition:        1E-10

   => Auxiliary Basis Set <=

  Basis Set: (AUG-CC-PVTZ AUX)
    Blend: AUG-CC-PVTZ-JKFIT
    Number of shells: 320
    Number of basis functions: 1084
    Number of Cartesian functions: 1336
    Spherical Harmonics?: true
    Max angular momentum: 4

  Minimum eigenvalue in the overlap matrix is 3.8643064715E-06.
  Reciprocal condition number of the overlap matrix is 1.9724993673E-07.
    Using symmetric orthogonalization.

  ==> Pre-Iterations <==

  SCF Guess: Superposition of Atomic Densities via on-the-fly atomic UHF (no occupation information).

   -------------------------
    Irrep   Nso     Nmo    
   -------------------------
     A        506     506 
   -------------------------
    Total     506     506
   -------------------------

  ==> Iterations <==

                           Total Energy        Delta E     RMS |[F,P]|

   @DF-RHF iter SAD:  -269.28831078019419   -2.69288e+02   0.00000e+00 
   @DF-RHF iter   1:  -269.86457357502803   -5.76263e-01   1.33801e-03 DIIS
   @DF-RHF iter   2:  -270.07468578268214   -2.10112e-01   6.99106e-04 DIIS
   @DF-RHF iter   3:  -270.12463660821709   -4.99508e-02   1.50770e-04 DIIS
   @DF-RHF iter   4:  -270.12843000082688   -3.79339e-03   7.33531e-05 DIIS
   @DF-RHF iter   5:  -270.12921304244111   -7.83042e-04   1.23830e-05 DIIS
   @DF-RHF iter   6:  -270.12925690780560   -4.38654e-05   5.61338e-06 DIIS
   @DF-RHF iter   7:  -270.12926466715788   -7.75935e-06   2.19065e-06 DIIS
   @DF-RHF iter   8:  -270.12926630065630   -1.63350e-06   7.07141e-07 DIIS
   @DF-RHF iter   9:  -270.12926651189963   -2.11243e-07   1.37343e-07 DIIS
   @DF-RHF iter  10:  -270.12926651965324   -7.75361e-09   3.46496e-08 DIIS
   @DF-RHF iter  11:  -270.12926651993951   -2.86263e-10   8.47855e-09 DIIS
   @DF-RHF iter  12:  -270.12926651995861   -1.90994e-11   2.37949e-09 DIIS
   @DF-RHF iter  13:  -270.12926651996059   -1.98952e-12   8.26563e-10 DIIS
   @DF-RHF iter  14:  -270.12926651996105   -4.54747e-13   4.07015e-10 DIIS
   @DF-RHF iter  15:  -270.12926651996088    1.70530e-13   2.09055e-10 DIIS
   @DF-RHF iter  16:  -270.12926651996116   -2.84217e-13   7.16657e-11 DIIS
  Energy and wave function converged.


  ==> Post-Iterations <==

    Orbital Energies [Eh]
    ---------------------

    Doubly Occupied:                                                      

       1A    -20.543263     2A    -11.328256     3A    -11.242760  
       4A    -11.236133     5A    -11.228566     6A    -11.215031  
       7A     -1.380366     8A     -1.087265     9A     -1.007658  
      10A     -0.937109    11A     -0.846479    12A     -0.723777  
      13A     -0.664646    14A     -0.633055    15A     -0.613262  
      16A     -0.596728    17A     -0.572239    18A     -0.554273  
      19A     -0.544054    20A     -0.516544    21A     -0.500763  
      22A     -0.484607    23A     -0.473752    24A     -0.402773  

    Virtual:                                                              

      25A      0.025865    26A      0.033825    27A      0.036348  
      28A      0.042128    29A      0.054128    30A      0.054755  
      31A      0.059796    32A      0.062612    33A      0.068227  
      34A      0.077300    35A      0.096410    36A      0.112499  
      37A      0.114678    38A      0.119497    39A      0.123248  
      40A      0.124424    41A      0.126455    42A      0.133164  
      43A      0.134420    44A      0.140619    45A      0.146620  
      46A      0.150463    47A      0.158153    48A      0.163092  
      49A      0.165854    50A      0.174237    51A      0.176078  
      52A      0.201159    53A      0.204115    54A      0.216431  
      55A      0.222321    56A      0.226569    57A      0.239079  
      58A      0.247979    59A      0.260727    60A      0.267108  
      61A      0.271984    62A      0.275704    63A      0.287489  
      64A      0.291368    65A      0.299716    66A      0.301075  
      67A      0.310787    68A      0.329711    69A      0.333088  
      70A      0.339908    71A      0.344327    72A      0.351851  
      73A      0.352759    74A      0.359678    75A      0.363001  
      76A      0.365748    77A      0.370177    78A      0.376221  
      79A      0.382780    80A      0.386108    81A      0.388917  
      82A      0.394309    83A      0.403288    84A      0.412930  
      85A      0.414442    86A      0.423680    87A      0.425536  
      88A      0.432421    89A      0.435108    90A      0.439686  
      91A      0.445754    92A      0.453718    93A      0.456106  
      94A      0.465215    95A      0.470672    96A      0.474088  
      97A      0.476728    98A      0.484034    99A      0.485443  
     100A      0.491906   101A      0.502665   102A      0.510427  
     103A      0.514284   104A      0.527422   105A      0.531009  
     106A      0.534151   107A      0.540840   108A      0.544320  
     109A      0.551717   110A      0.557870   111A      0.562528  
     112A      0.583918   113A      0.587914   114A      0.598082  
     115A      0.604688   116A      0.608369   117A      0.615423  
     118A      0.626625   119A      0.635330   120A      0.639277  
     121A      0.647682   122A      0.660296   123A      0.667021  
     124A      0.674504   125A      0.678592   126A      0.702832  
     127A      0.711515   128A      0.726262   129A      0.750881  
     130A      0.764840   131A      0.778957   132A      0.786065  
     133A      0.803006   134A      0.809693   135A      0.815327  
     136A      0.817961   137A      0.824339   138A      0.833953  
     139A      0.844781   140A      0.847841   141A      0.850659  
     142A      0.857451   143A      0.865831   144A      0.873857  
     145A      0.879163   146A      0.892380   147A      0.894148  
     148A      0.905841   149A      0.911891   150A      0.913893  
     151A      0.919685   152A      0.928438   153A      0.930955  
     154A      0.941681   155A      0.945813   156A      0.952718  
     157A      0.962655   158A      0.966893   159A      0.981673  
     160A      0.994442   161A      0.997677   162A      1.011693  
     163A      1.020415   164A      1.032444   165A      1.037160  
     166A      1.048186   167A      1.055812   168A      1.056567  
     169A      1.059043   170A      1.067651   171A      1.081626  
     172A      1.088167   173A      1.091733   174A      1.106047  
     175A      1.106363   176A      1.117019   177A      1.136304  
     178A      1.140718   179A      1.152789   180A      1.161062  
     181A      1.164318   182A      1.169660   183A      1.170740  
     184A      1.181643   185A      1.191217   186A      1.207723  
     187A      1.210806   188A      1.213195   189A      1.231280  
     190A      1.236494   191A      1.238871   192A      1.248482  
     193A      1.253492   194A      1.269063   195A      1.280014  
     196A      1.292688   197A      1.299551   198A      1.323970  
     199A      1.333664   200A      1.337201   201A      1.340278  
     202A      1.358137   203A      1.374728   204A      1.389520  
     205A      1.399172   206A      1.411304   207A      1.416190  
     208A      1.427132   209A      1.435840   210A      1.441398  
     211A      1.453166   212A      1.461908   213A      1.476243  
     214A      1.487428   215A      1.491376   216A      1.503115  
     217A      1.513055   218A      1.525683   219A      1.542854  
     220A      1.551792   221A      1.562219   222A      1.571711  
     223A      1.582617   224A      1.591464   225A      1.604123  
     226A      1.610151   227A      1.626503   228A      1.638580  
     229A      1.643276   230A      1.660033   231A      1.668086  
     232A      1.679311   233A      1.701735   234A      1.703997  
     235A      1.709135   236A      1.718060   237A      1.721298  
     238A      1.733948   239A      1.735533   240A      1.746004  
     241A      1.746378   242A      1.757620   243A      1.772286  
     244A      1.780122   245A      1.795955   246A      1.804123  
     247A      1.818079   248A      1.829825   249A      1.844032  
     250A      1.854198   251A      1.860608   252A      1.888335  
     253A      1.893988   254A      1.910775   255A      1.914922  
     256A      1.924199   257A      1.939555   258A      1.942844  
     259A      1.947745   260A      1.951211   261A      1.959943  
     262A      1.971972   263A      1.987703   264A      2.007652  
     265A      2.024054   266A      2.040843   267A      2.042702  
     268A      2.058439   269A      2.081708   270A      2.093763  
     271A      2.101627   272A      2.119282   273A      2.138964  
     274A      2.161298   275A      2.170618   276A      2.181901  
     277A      2.194688   278A      2.216260   279A      2.227911  
     280A      2.231681   281A      2.241113   282A      2.258749  
     283A      2.266623   284A      2.280177   285A      2.288498  
     286A      2.309083   287A      2.317977   288A      2.326341  
     289A      2.338087   290A      2.361341   291A      2.372661  
     292A      2.397464   293A      2.419437   294A      2.442494  
     295A      2.474105   296A      2.491806   297A      2.496440  
     298A      2.506174   299A      2.541034   300A      2.565500  
     301A      2.571838   302A      2.590412   303A      2.656661  
     304A      2.674517   305A      2.689730   306A      2.694773  
     307A      2.726566   308A      2.779360   309A      2.801912  
     310A      2.822161   311A      2.879497   312A      2.900477  
     313A      2.927875   314A      3.003771   315A      3.041353  
     316A      3.077805   317A      3.102231   318A      3.155961  
     319A      3.224957   320A      3.248063   321A      3.282900  
     322A      3.304226   323A      3.344783   324A      3.366959  
     325A      3.394472   326A      3.419746   327A      3.445263  
     328A      3.472786   329A      3.490844   330A      3.499498  
     331A      3.505084   332A      3.512828   333A      3.539548  
     334A      3.557636   335A      3.579722   336A      3.584424  
     337A      3.626239   338A      3.646618   339A      3.648122  
     340A      3.663831   341A      3.675176   342A      3.688996  
     343A      3.712732   344A      3.722590   345A      3.727653  
     346A      3.731577   347A      3.739546   348A      3.744302  
     349A      3.752802   350A      3.787335   351A      3.798159  
     352A      3.811546   353A      3.823996   354A      3.828277  
     355A      3.845573   356A      3.873802   357A      3.890171  
     358A      3.900439   359A      3.911937   360A      3.937958  
     361A      3.943161   362A      3.950744   363A      3.952099  
     364A      3.968435   365A      3.981041   366A      3.990862  
     367A      4.012358   368A      4.028826   369A      4.039981  
     370A      4.050473   371A      4.061123   372A      4.067962  
     373A      4.103371   374A      4.110491   375A      4.124211  
     376A      4.151789   377A      4.162974   378A      4.170214  
     379A      4.183546   380A      4.196641   381A      4.218080  
     382A      4.231072   383A      4.243546   384A      4.248412  
     385A      4.262873   386A      4.276642   387A      4.301010  
     388A      4.317272   389A      4.325901   390A      4.329926  
     391A      4.364610   392A      4.373970   393A      4.414578  
     394A      4.441188   395A      4.442016   396A      4.457980  
     397A      4.478691   398A      4.491039   399A      4.518476  
     400A      4.529293   401A      4.549463   402A      4.578823  
     403A      4.618835   404A      4.631115   405A      4.651884  
     406A      4.657276   407A      4.682585   408A      4.711711  
     409A      4.731208   410A      4.750600   411A      4.759909  
     412A      4.768503   413A      4.792241   414A      4.827744  
     415A      4.841794   416A      4.853809   417A      4.864324  
     418A      4.868790   419A      4.883873   420A      4.891769  
     421A      4.904423   422A      4.933976   423A      4.964624  
     424A      4.973426   425A      5.010521   426A      5.027556  
     427A      5.047222   428A      5.066274   429A      5.084091  
     430A      5.120209   431A      5.135407   432A      5.163130  
     433A      5.176584   434A      5.193475   435A      5.216734  
     436A      5.230449   437A      5.265526   438A      5.285640  
     439A      5.296418   440A      5.311752   441A      5.326349  
     442A      5.354050   443A      5.366878   444A      5.391290  
     445A      5.418052   446A      5.436287   447A      5.456816  
     448A      5.467400   449A      5.472378   450A      5.494707  
     451A      5.507274   452A      5.535379   453A      5.571689  
     454A      5.601579   455A      5.624272   456A      5.643835  
     457A      5.655138   458A      5.672246   459A      5.689821  
     460A      5.740002   461A      5.765352   462A      5.779654  
     463A      5.811593   464A      5.826390   465A      5.881470  
     466A      5.917891   467A      5.972964   468A      5.979167  
     469A      6.037265   470A      6.070199   471A      6.129098  
     472A      6.144465   473A      6.148431   474A      6.187808  
     475A      6.207186   476A      6.236697   477A      6.265414  
     478A      6.286335   479A      6.305068   480A      6.376737  
     481A      6.527322   482A      6.719269   483A      6.745977  
     484A      6.765466   485A      6.803007   486A      6.830888  
     487A      6.835978   488A      6.855090   489A      6.899270  
     490A      6.925795   491A      7.111233   492A      7.132603  
     493A      7.278016   494A      7.442573   495A      7.519569  
     496A      7.556770   497A      7.680540   498A      7.766527  
     499A      7.947020   500A      8.036114   501A     15.996737  
     502A     17.228765   503A     17.745518   504A     18.122315  
     505A     19.031980   506A     20.109057  

    Final Occupation by Irrep:
              A 
    DOCC [    24 ]

  @DF-RHF Final Energy:  -270.12926651996116

   => Energetics <=

    Nuclear Repulsion Energy =            244.7014768688088395
    One-Electron Energy =                -850.9947656470673110
    Two-Electron Energy =                 336.1640222582972797
    Total Energy =                       -270.1292665199611633

Computation Completed

*** tstop() called on c445-062.stampede2.tacc.utexas.edu at Sat Mar 20 08:12:07 2021
Module time:
	user time   =     301.08 seconds =       5.02 minutes
	system time =      22.24 seconds =       0.37 minutes
	total time  =         19 seconds =       0.32 minutes
Total time:
	user time   =     301.08 seconds =       5.02 minutes
	system time =      22.24 seconds =       0.37 minutes
	total time  =         19 seconds =       0.32 minutes
   => Loading Basis Set <=

    Name: (AUG-CC-PVTZ AUX)
    Role: RIFIT
    Keyword: DF_BASIS_MP2
    atoms 1    entry O          line   264 file /home1/07844/xy3866/miniconda3/envs/p4env/share/psi4/basis/aug-cc-pvtz-ri.gbs 
    atoms 2-6  entry C          line   148 file /home1/07844/xy3866/miniconda3/envs/p4env/share/psi4/basis/aug-cc-pvtz-ri.gbs 
    atoms 7-16 entry H          line    30 file /home1/07844/xy3866/miniconda3/envs/p4env/share/psi4/basis/aug-cc-pvtz-ri.gbs 


*** tstart() called on c445-062.stampede2.tacc.utexas.edu
*** at Sat Mar 20 08:12:08 2021


  //>>>>>>>>>>>>>>>>>>>>>>>>>>>>>>>>>>>//
  //               DFMP2               //
  //<<<<<<<<<<<<<<<<<<<<<<<<<<<<<<<<<<<//

	 --------------------------------------------------------
	                          DF-MP2                         
	      2nd-Order Density-Fitted Moller-Plesset Theory     
	              RMP2 Wavefunction,  32 Threads             
	                                                         
	        Rob Parrish, Justin Turney, Andy Simmonett,      
	           Ed Hohenstein, and C. David Sherrill          
	 --------------------------------------------------------

   => Auxiliary Basis Set <=

  Basis Set: (AUG-CC-PVTZ AUX)
    Blend: AUG-CC-PVTZ-RI
    Number of shells: 308
    Number of basis functions: 1096
    Number of Cartesian functions: 1366
    Spherical Harmonics?: true
    Max angular momentum: 4

	 --------------------------------------------------------
	                 NBF =   506, NAUX =  1096
	 --------------------------------------------------------
	   CLASS    FOCC     OCC    AOCC    AVIR     VIR    FVIR
	   PAIRS       0      24      24     482     482       0
	 --------------------------------------------------------

  DFHelper Memory: AOs need 2.150 GiB; user supplied 22.352 GiB. Using in-core AOs.


         ------------------------------------------------------------
                                     CPHF                           
                                  Rob Parrish                       
         ------------------------------------------------------------

  ==> Geometry <==

    Molecular point group: c1
    Full point group: C1

    Geometry (in Angstrom), charge = 0, multiplicity = 1:

       Center              X                  Y                   Z               Mass       
    ------------   -----------------  -----------------  -----------------  -----------------
         O            0.821189344780    -1.133940700115    -0.811726243894    15.994914619570
         C           -0.659475655220     0.286623299885     0.435646756106    12.000000000000
         C           -1.138635655220     1.375537299885    -0.535415243894    12.000000000000
         C           -1.652219655220    -0.868658700115     0.502493756106    12.000000000000
         C            0.726368544780    -0.200592500115    -0.033616143894    12.000000000000
         C            1.915949344780     0.550410299885     0.497837756106    12.000000000000
         H           -0.546272655220     0.736297299885     1.431308756106     1.007825032230
         H           -1.243718655220     0.954663299885    -1.539858243894     1.007825032230
         H           -2.111769655220     1.762849299885    -0.219746243894     1.007825032230
         H           -0.440676655220     2.216944299885    -0.585987243894     1.007825032230
         H           -1.317417655220    -1.637260700115     1.204837756106     1.007825032230
         H           -1.749789655220    -1.334058700115    -0.480457243894     1.007825032230
         H           -2.634432655220    -0.510952700115     0.825301756106     1.007825032230
         H            1.775557344780     1.632824299885     0.420157756106     1.007825032230
         H            2.805483344780     0.246069299885    -0.055065243894     1.007825032230
         H            2.051039344780     0.315774299885     1.559604756106     1.007825032230

  Nuclear repulsion =  244.701476868808840
  Reference energy  = -270.129266519961163

  ==> Basis Set <==

  Basis Set: AUG-CC-PVTZ
    Blend: AUG-CC-PVTZ
    Number of shells: 174
    Number of basis functions: 506
    Number of Cartesian functions: 580
    Spherical Harmonics?: true
    Max angular momentum: 3

  ==> CGRSolver (by Rob Parrish) <==

   Number of roots    =         1
   Preconditioning    =    JACOBI
   Convergence cutoff =     1E-06
   Maximum iterations =       100

  ==> CPHFRHamiltonian (by Rob Parrish) <== 

  ==> MemDFJK: Density-Fitted J/K Matrices <==

    J tasked:                   Yes
    K tasked:                   Yes
    wK tasked:                   No
    OpenMP threads:              32
    Memory [MiB]:             22888
    Algorithm:                 Core
    Schwarz Cutoff:           1E-12
    Mask sparsity (%):       1.9083
    Fitting Condition:        1E-10

   => Auxiliary Basis Set <=

  Basis Set: (AUG-CC-PVTZ AUX)
    Blend: AUG-CC-PVTZ-JKFIT
    Number of shells: 320
    Number of basis functions: 1084
    Number of Cartesian functions: 1336
    Spherical Harmonics?: true
    Max angular momentum: 4

  ==> CPHF Iterations <==

  => Iterations <=

             Iter  Converged  Remaining    Residual
  CGR           1          0          1   1.118E-01
  CGR           2          0          1   3.210E-02
  CGR           3          0          1   9.878E-03
  CGR           4          0          1   3.301E-03
  CGR           5          0          1   1.296E-03
  CGR           6          0          1   4.778E-04
  CGR           7          0          1   1.015E-04
  CGR           8          0          1   2.957E-05
  CGR           9          0          1   1.045E-05
  CGR          10          0          1   5.720E-06
  CGR          11          0          1   2.324E-06
  CGR          12          1          0   6.497E-07

    CGRSolver converged.

	-----------------------------------------------------------
	 ==================> DF-MP2 Energies <==================== 
	-----------------------------------------------------------
	 Reference Energy          =    -270.1292665199611633 [Eh]
	 Singles Energy            =      -0.0000000000000000 [Eh]
	 Same-Spin Energy          =      -0.2738783851727681 [Eh]
	 Opposite-Spin Energy      =      -0.9484205714075349 [Eh]
	 Correlation Energy        =      -1.2222989565803031 [Eh]
	 Total Energy              =    -271.3515654765414524 [Eh]
	-----------------------------------------------------------
	 ================> DF-SCS-MP2 Energies <================== 
	-----------------------------------------------------------
	 SCS Same-Spin Scale       =       0.3333333333333333 [-]
	 SCS Opposite-Spin Scale   =       1.2000000000000000 [-]
	 SCS Same-Spin Energy      =      -0.0912927950575894 [Eh]
	 SCS Opposite-Spin Energy  =      -1.1381046856890418 [Eh]
	 SCS Correlation Energy    =      -1.2293974807466312 [Eh]
	 SCS Total Energy          =    -271.3586640007077904 [Eh]
	-----------------------------------------------------------



Properties will be evaluated at  -0.000000,  -0.000000,   0.000000 [a0]

Properties computed using the MP2 density matrix

  Nuclear Dipole Moment: [e a0]
     X:    -3.1947      Y:     4.1036      Z:     2.3961

  Electronic Dipole Moment: [e a0]
     X:     3.0753      Y:    -3.2497      Z:    -1.7189

  Dipole Moment: [e a0]
     X:    -0.1194      Y:     0.8540      Z:     0.6772     Total:     1.0964

  Dipole Moment: [D]
     X:    -0.3035      Y:     2.1706      Z:     1.7212     Total:     2.7868


*** tstop() called on c445-062.stampede2.tacc.utexas.edu at Sat Mar 20 08:13:43 2021
Module time:
	user time   =     756.71 seconds =      12.61 minutes
	system time =      31.90 seconds =       0.53 minutes
	total time  =         95 seconds =       1.58 minutes
Total time:
	user time   =    1058.57 seconds =      17.64 minutes
	system time =      54.16 seconds =       0.90 minutes
	total time  =        115 seconds =       1.92 minutes

    Psi4 stopped on: Saturday, 20 March 2021 08:13AM
    Psi4 wall time for execution: 0:01:56.01

*** Psi4 exiting successfully. Buy a developer a beer!
