
    -----------------------------------------------------------------------
          Psi4: An Open-Source Ab Initio Electronic Structure Package
                               Psi4 1.3.2 release

                         Git: Rev {HEAD} ecbda83 


    R. M. Parrish, L. A. Burns, D. G. A. Smith, A. C. Simmonett,
    A. E. DePrince III, E. G. Hohenstein, U. Bozkaya, A. Yu. Sokolov,
    R. Di Remigio, R. M. Richard, J. F. Gonthier, A. M. James,
    H. R. McAlexander, A. Kumar, M. Saitow, X. Wang, B. P. Pritchard,
    P. Verma, H. F. Schaefer III, K. Patkowski, R. A. King, E. F. Valeev,
    F. A. Evangelista, J. M. Turney, T. D. Crawford, and C. D. Sherrill,
    J. Chem. Theory Comput. 13(7) pp 3185--3197 (2017).
    (doi: 10.1021/acs.jctc.7b00174)


                         Additional Contributions by
    P. Kraus, H. Kruse, M. H. Lechner, M. C. Schieber, R. A. Shaw,
    A. Alenaizan, R. Galvelis, Z. L. Glick, S. Lehtola, and J. P. Misiewicz

    -----------------------------------------------------------------------


    Psi4 started on: Monday, 02 November 2020 04:53PM

    Process ID: 25611
    Host:       node37.bme.utexas.edu
    PSIDATADIR: /home/xy3866/psi4conda/share/psi4
    Memory:     500.0 MiB
    Threads:    8
    
  ==> Input File <==

--------------------------------------------------------------------------
#psi4
#
memory 32 gb

molecule  {
0 1
  O       -0.9233460     1.1259790    -0.7064150
  C        0.6908080    -0.2688650     0.3923890
  C        1.2411075    -1.2687760    -0.6417172
  C        1.6030820     0.9446750     0.4967120
  C       -0.7210233     0.1832725     0.0566793
  C       -1.8529100    -0.7015860     0.5295210
  H        0.6514880    -0.7856950     1.3599030
  H        1.2206430    -0.7821580    -1.6480110
  H        2.2053530    -1.6017900    -0.4206070
  H        0.5514890    -2.1461630    -0.7366640
  H        1.2521310     1.6422800     1.2622420
  H        1.6225110     1.4777260    -0.4537380
  H        2.6197860     0.6362020     0.7540910
  H       -1.6800360    -1.7612670     0.2847220
  H       -2.7934900    -0.3633680     0.0910490
  H       -1.9015030    -0.6283060     1.6249380
units angstrom
no_reorient  #important for SAPT in psi4, default
symmetry c1  #important for SAPT in psi4, default
}

set PROPERTIES_ORIGIN ["COM"]
properties('MP2/aug-cc-pvtz', properties = ['dipole'])
--------------------------------------------------------------------------

  Memory set to  29.802 GiB by Python driver.
    SCF Algorithm Type (re)set to DF.

*** tstart() called on node37.bme.utexas.edu
*** at Mon Nov  2 16:53:39 2020

   => Loading Basis Set <=

    Name: AUG-CC-PVTZ
    Role: ORBITAL
    Keyword: BASIS
    atoms 1    entry O          line   327 file /home/xy3866/psi4conda/share/psi4/basis/aug-cc-pvtz.gbs 
    atoms 2-6  entry C          line   235 file /home/xy3866/psi4conda/share/psi4/basis/aug-cc-pvtz.gbs 
    atoms 7-16 entry H          line    36 file /home/xy3866/psi4conda/share/psi4/basis/aug-cc-pvtz.gbs 


         ---------------------------------------------------------
                                   SCF
               by Justin Turney, Rob Parrish, Andy Simmonett
                          and Daniel G. A. Smith
                              RHF Reference
                        8 Threads,  30517 MiB Core
         ---------------------------------------------------------

  ==> Geometry <==

    Molecular point group: c1
    Full point group: C1

    Geometry (in Angstrom), charge = 0, multiplicity = 1:

       Center              X                  Y                   Z               Mass       
    ------------   -----------------  -----------------  -----------------  -----------------
         O           -0.929638705720     1.122164812245    -0.716156240734    15.994914619570
         C            0.684515294280    -0.272679187755     0.382647759266    12.000000000000
         C            1.234814794280    -1.272590187755    -0.651458440734    12.000000000000
         C            1.596789294280     0.940860812245     0.486970759266    12.000000000000
         C           -0.727316005720     0.179458312245     0.046938059266    12.000000000000
         C           -1.859202705720    -0.705400187755     0.519779759266    12.000000000000
         H            0.645195294280    -0.789509187755     1.350161759266     1.007825032230
         H            1.214350294280    -0.785972187755    -1.657752240734     1.007825032230
         H            2.199060294280    -1.605604187755    -0.430348240734     1.007825032230
         H            0.545196294280    -2.149977187755    -0.746405240734     1.007825032230
         H            1.245838294280     1.638465812245     1.252500759266     1.007825032230
         H            1.616218294280     1.473911812245    -0.463479240734     1.007825032230
         H            2.613493294280     0.632387812245     0.744349759266     1.007825032230
         H           -1.686328705720    -1.765081187755     0.274980759266     1.007825032230
         H           -2.799782705720    -0.367182187755     0.081307759266     1.007825032230
         H           -1.907795705720    -0.632120187755     1.615196759266     1.007825032230

  Running in c1 symmetry.

  Rotational constants: A =      0.15831  B =      0.09347  C =      0.07535 [cm^-1]
  Rotational constants: A =   4746.08894  B =   2802.14976  C =   2258.87587 [MHz]
  Nuclear repulsion =  244.667333300303113

  Charge       = 0
  Multiplicity = 1
  Electrons    = 48
  Nalpha       = 24
  Nbeta        = 24

  ==> Algorithm <==

  SCF Algorithm Type is DF.
  DIIS enabled.
  MOM disabled.
  Fractional occupation disabled.
  Guess Type is SAD.
  Energy threshold   = 1.00e-10
  Density threshold  = 1.00e-10
  Integral threshold = 0.00e+00

  ==> Primary Basis <==

  Basis Set: AUG-CC-PVTZ
    Blend: AUG-CC-PVTZ
    Number of shells: 174
    Number of basis function: 506
    Number of Cartesian functions: 580
    Spherical Harmonics?: true
    Max angular momentum: 3

   => Loading Basis Set <=

    Name: (AUG-CC-PVTZ AUX)
    Role: JKFIT
    Keyword: DF_BASIS_SCF
    atoms 1    entry O          line   286 file /home/xy3866/psi4conda/share/psi4/basis/aug-cc-pvtz-jkfit.gbs 
    atoms 2-6  entry C          line   162 file /home/xy3866/psi4conda/share/psi4/basis/aug-cc-pvtz-jkfit.gbs 
    atoms 7-16 entry H          line    70 file /home/xy3866/psi4conda/share/psi4/basis/aug-cc-pvtz-jkfit.gbs 

  ==> Pre-Iterations <==

   -------------------------------------------------------
    Irrep   Nso     Nmo     Nalpha   Nbeta   Ndocc  Nsocc
   -------------------------------------------------------
     A        506     506       0       0       0       0
   -------------------------------------------------------
    Total     506     506      24      24      24       0
   -------------------------------------------------------

  ==> Integral Setup <==

  DFHelper Memory: AOs need 2.104 GiB; user supplied 22.352 GiB. Using in-core AOs.

  ==> MemDFJK: Density-Fitted J/K Matrices <==

    J tasked:                   Yes
    K tasked:                   Yes
    wK tasked:                   No
    OpenMP threads:               8
    Memory [MiB]:             22888
    Algorithm:                 Disk
    Schwarz Cutoff:           1E-12
    Mask sparsity (%):       1.9036
    Fitting Condition:        1E-10

   => Auxiliary Basis Set <=

  Basis Set: (AUG-CC-PVTZ AUX)
    Blend: AUG-CC-PVTZ-JKFIT
    Number of shells: 320
    Number of basis function: 1084
    Number of Cartesian functions: 1336
    Spherical Harmonics?: true
    Max angular momentum: 4

  Minimum eigenvalue in the overlap matrix is 3.9536606874E-06.
  Using Symmetric Orthogonalization.

  SCF Guess: Superposition of Atomic Densities via on-the-fly atomic UHF.

  ==> Iterations <==

                           Total Energy        Delta E     RMS |[F,P]|

   @DF-RHF iter SAD:  -269.28145635865076   -2.69281e+02   0.00000e+00 
   @DF-RHF iter   1:  -269.85754482789321   -5.76088e-01   1.33956e-03 DIIS
   @DF-RHF iter   2:  -270.06716772158336   -2.09623e-01   7.09977e-04 DIIS
   @DF-RHF iter   3:  -270.11835718433196   -5.11895e-02   1.54826e-04 DIIS
   @DF-RHF iter   4:  -270.12226812824326   -3.91094e-03   7.52221e-05 DIIS
   @DF-RHF iter   5:  -270.12309798816773   -8.29860e-04   1.25750e-05 DIIS
   @DF-RHF iter   6:  -270.12314385408183   -4.58659e-05   5.69629e-06 DIIS
   @DF-RHF iter   7:  -270.12315214086129   -8.28678e-06   2.29296e-06 DIIS
   @DF-RHF iter   8:  -270.12315394628632   -1.80543e-06   7.61562e-07 DIIS
   @DF-RHF iter   9:  -270.12315419368520   -2.47399e-07   1.46626e-07 DIIS
   @DF-RHF iter  10:  -270.12315420262672   -8.94153e-09   3.80451e-08 DIIS
   @DF-RHF iter  11:  -270.12315420298989   -3.63173e-10   9.06875e-09 DIIS
   @DF-RHF iter  12:  -270.12315420301070   -2.08047e-11   2.83130e-09 DIIS
   @DF-RHF iter  13:  -270.12315420301434   -3.63798e-12   1.10226e-09 DIIS
   @DF-RHF iter  14:  -270.12315420301496   -6.25278e-13   5.81405e-10 DIIS
   @DF-RHF iter  15:  -270.12315420301502   -5.68434e-14   2.76415e-10 DIIS
   @DF-RHF iter  16:  -270.12315420301508   -5.68434e-14   8.51013e-11 DIIS
  Energy and wave function converged.


  ==> Post-Iterations <==

    Orbital Energies [Eh]
    ---------------------

    Doubly Occupied:                                                      

       1A    -20.543937     2A    -11.329893     3A    -11.243257  
       4A    -11.237160     5A    -11.230717     6A    -11.214479  
       7A     -1.374343     8A     -1.090156     9A     -1.004936  
      10A     -0.938388    11A     -0.852447    12A     -0.722767  
      13A     -0.664857    14A     -0.631122    15A     -0.613912  
      16A     -0.592998    17A     -0.574385    18A     -0.559991  
      19A     -0.541867    20A     -0.517877    21A     -0.497861  
      22A     -0.480808    23A     -0.469577    24A     -0.407608  

    Virtual:                                                              

      25A      0.025854    26A      0.033644    27A      0.036412  
      28A      0.042240    29A      0.053843    30A      0.054654  
      31A      0.059993    32A      0.063089    33A      0.068372  
      34A      0.077462    35A      0.096063    36A      0.112358  
      37A      0.115154    38A      0.119525    39A      0.122694  
      40A      0.124881    41A      0.127102    42A      0.133231  
      43A      0.134233    44A      0.137512    45A      0.147307  
      46A      0.149988    47A      0.158986    48A      0.162407  
      49A      0.164897    50A      0.172139    51A      0.175586  
      52A      0.201231    53A      0.203886    54A      0.216163  
      55A      0.221496    56A      0.227035    57A      0.239050  
      58A      0.248238    59A      0.262172    60A      0.267506  
      61A      0.271998    62A      0.276466    63A      0.287573  
      64A      0.289332    65A      0.297824    66A      0.303161  
      67A      0.309503    68A      0.332430    69A      0.333318  
      70A      0.338853    71A      0.343228    72A      0.352934  
      73A      0.353476    74A      0.359099    75A      0.361852  
      76A      0.365450    77A      0.371112    78A      0.375565  
      79A      0.382846    80A      0.386160    81A      0.388612  
      82A      0.394495    83A      0.402450    84A      0.411831  
      85A      0.414825    86A      0.421937    87A      0.425753  
      88A      0.430711    89A      0.436099    90A      0.441324  
      91A      0.447034    92A      0.452728    93A      0.460159  
      94A      0.465363    95A      0.471428    96A      0.471796  
      97A      0.477551    98A      0.485369    99A      0.487102  
     100A      0.494019   101A      0.503668   102A      0.510591  
     103A      0.514814   104A      0.525857   105A      0.532667  
     106A      0.536071   107A      0.541538   108A      0.543673  
     109A      0.551604   110A      0.559668   111A      0.561885  
     112A      0.581850   113A      0.587644   114A      0.593652  
     115A      0.606234   116A      0.609043   117A      0.616594  
     118A      0.625078   119A      0.637079   120A      0.639093  
     121A      0.649420   122A      0.662331   123A      0.666671  
     124A      0.675131   125A      0.680431   126A      0.702138  
     127A      0.712530   128A      0.728072   129A      0.749131  
     130A      0.766709   131A      0.780365   132A      0.783526  
     133A      0.797238   134A      0.807965   135A      0.813928  
     136A      0.817162   137A      0.822770   138A      0.833470  
     139A      0.842469   140A      0.848480   141A      0.850016  
     142A      0.856058   143A      0.865118   144A      0.870934  
     145A      0.877648   146A      0.890763   147A      0.893501  
     148A      0.910004   149A      0.911347   150A      0.914942  
     151A      0.919347   152A      0.924461   153A      0.929948  
     154A      0.939183   155A      0.941745   156A      0.954201  
     157A      0.960232   158A      0.971425   159A      0.977875  
     160A      0.993954   161A      0.997814   162A      1.012960  
     163A      1.013136   164A      1.027924   165A      1.035827  
     166A      1.046848   167A      1.054862   168A      1.056526  
     169A      1.066683   170A      1.069908   171A      1.084520  
     172A      1.087887   173A      1.094776   174A      1.107050  
     175A      1.110892   176A      1.120402   177A      1.134683  
     178A      1.141282   179A      1.148733   180A      1.153243  
     181A      1.168427   182A      1.169481   183A      1.180148  
     184A      1.184983   185A      1.194028   186A      1.203983  
     187A      1.210223   188A      1.218883   189A      1.231391  
     190A      1.236656   191A      1.244235   192A      1.248494  
     193A      1.254715   194A      1.273511   195A      1.280566  
     196A      1.291441   197A      1.300105   198A      1.328680  
     199A      1.333048   200A      1.337371   201A      1.340325  
     202A      1.358856   203A      1.372631   204A      1.394022  
     205A      1.399328   206A      1.402204   207A      1.414264  
     208A      1.426684   209A      1.431619   210A      1.447663  
     211A      1.452984   212A      1.456345   213A      1.477265  
     214A      1.482809   215A      1.492688   216A      1.502765  
     217A      1.517593   218A      1.532279   219A      1.543429  
     220A      1.551747   221A      1.558459   222A      1.571471  
     223A      1.584410   224A      1.592323   225A      1.601606  
     226A      1.608634   227A      1.630623   228A      1.633076  
     229A      1.642214   230A      1.659351   231A      1.662865  
     232A      1.670742   233A      1.697138   234A      1.703660  
     235A      1.706331   236A      1.715707   237A      1.722382  
     238A      1.730022   239A      1.737396   240A      1.745596  
     241A      1.750767   242A      1.755732   243A      1.770535  
     244A      1.782459   245A      1.797016   246A      1.808483  
     247A      1.814488   248A      1.833558   249A      1.845780  
     250A      1.854819   251A      1.859275   252A      1.885365  
     253A      1.889349   254A      1.916075   255A      1.916891  
     256A      1.928554   257A      1.940026   258A      1.945552  
     259A      1.949374   260A      1.956100   261A      1.962238  
     262A      1.968183   263A      1.993567   264A      2.015137  
     265A      2.018661   266A      2.038503   267A      2.045303  
     268A      2.058582   269A      2.084307   270A      2.093101  
     271A      2.105364   272A      2.121968   273A      2.139671  
     274A      2.163435   275A      2.166879   276A      2.191053  
     277A      2.197171   278A      2.215910   279A      2.224596  
     280A      2.229100   281A      2.241129   282A      2.255842  
     283A      2.264232   284A      2.276841   285A      2.297135  
     286A      2.309535   287A      2.310555   288A      2.332547  
     289A      2.342951   290A      2.366523   291A      2.382151  
     292A      2.396303   293A      2.418099   294A      2.437878  
     295A      2.454744   296A      2.490499   297A      2.497213  
     298A      2.516972   299A      2.532384   300A      2.550346  
     301A      2.567863   302A      2.588883   303A      2.637024  
     304A      2.665152   305A      2.692317   306A      2.700820  
     307A      2.717990   308A      2.777649   309A      2.795395  
     310A      2.824004   311A      2.880102   312A      2.898842  
     313A      2.936757   314A      2.990606   315A      3.036366  
     316A      3.066246   317A      3.105795   318A      3.166817  
     319A      3.219983   320A      3.269293   321A      3.284780  
     322A      3.324347   323A      3.349583   324A      3.383992  
     325A      3.406421   326A      3.433172   327A      3.439707  
     328A      3.461360   329A      3.486633   330A      3.491436  
     331A      3.494352   332A      3.512172   333A      3.546628  
     334A      3.557533   335A      3.579528   336A      3.588916  
     337A      3.623640   338A      3.645032   339A      3.651517  
     340A      3.659036   341A      3.670414   342A      3.688355  
     343A      3.713344   344A      3.719880   345A      3.727277  
     346A      3.728796   347A      3.738860   348A      3.746739  
     349A      3.757266   350A      3.781750   351A      3.789109  
     352A      3.794648   353A      3.823400   354A      3.828487  
     355A      3.848274   356A      3.883405   357A      3.887876  
     358A      3.899952   359A      3.918457   360A      3.923749  
     361A      3.938338   362A      3.947885   363A      3.955534  
     364A      3.978590   365A      3.984443   366A      3.998311  
     367A      4.007893   368A      4.028662   369A      4.042446  
     370A      4.043984   371A      4.061884   372A      4.067234  
     373A      4.100751   374A      4.117021   375A      4.128221  
     376A      4.145661   377A      4.158319   378A      4.167613  
     379A      4.178201   380A      4.182806   381A      4.221287  
     382A      4.227306   383A      4.241986   384A      4.248888  
     385A      4.263030   386A      4.272773   387A      4.296601  
     388A      4.315793   389A      4.318767   390A      4.331247  
     391A      4.357994   392A      4.368746   393A      4.409066  
     394A      4.439065   395A      4.450094   396A      4.462492  
     397A      4.475762   398A      4.482788   399A      4.522007  
     400A      4.540620   401A      4.549083   402A      4.577860  
     403A      4.615368   404A      4.620968   405A      4.647307  
     406A      4.662667   407A      4.676813   408A      4.710900  
     409A      4.725664   410A      4.744389   411A      4.755687  
     412A      4.770380   413A      4.777293   414A      4.824636  
     415A      4.828109   416A      4.847048   417A      4.854303  
     418A      4.864548   419A      4.878054   420A      4.900601  
     421A      4.910115   422A      4.931004   423A      4.960644  
     424A      4.980594   425A      5.007645   426A      5.027244  
     427A      5.038775   428A      5.060938   429A      5.079828  
     430A      5.129314   431A      5.145133   432A      5.163952  
     433A      5.177681   434A      5.203103   435A      5.207206  
     436A      5.236712   437A      5.264836   438A      5.275520  
     439A      5.297187   440A      5.310798   441A      5.312915  
     442A      5.347037   443A      5.375453   444A      5.397263  
     445A      5.415581   446A      5.419737   447A      5.440746  
     448A      5.458723   449A      5.482320   450A      5.485233  
     451A      5.511749   452A      5.533246   453A      5.587087  
     454A      5.599003   455A      5.616966   456A      5.645321  
     457A      5.664445   458A      5.681792   459A      5.703492  
     460A      5.750373   461A      5.766408   462A      5.788340  
     463A      5.809375   464A      5.827616   465A      5.895711  
     466A      5.922156   467A      5.972209   468A      5.983611  
     469A      6.039392   470A      6.046972   471A      6.114373  
     472A      6.131338   473A      6.149918   474A      6.192382  
     475A      6.203018   476A      6.242541   477A      6.273704  
     478A      6.286563   479A      6.356031   480A      6.364053  
     481A      6.533131   482A      6.715338   483A      6.741795  
     484A      6.760681   485A      6.793119   486A      6.825334  
     487A      6.837589   488A      6.856989   489A      6.905212  
     490A      6.920912   491A      7.108202   492A      7.123216  
     493A      7.257614   494A      7.439207   495A      7.515747  
     496A      7.532891   497A      7.676939   498A      7.774578  
     499A      7.933226   500A      8.039292   501A     15.883053  
     502A     17.105859   503A     17.683474   504A     18.252895  
     505A     18.953628   506A     20.223642  

    Final Occupation by Irrep:
              A 
    DOCC [    24 ]

  @DF-RHF Final Energy:  -270.12315420301508

   => Energetics <=

    Nuclear Repulsion Energy =            244.6673333003031132
    One-Electron Energy =                -850.9102916943385253
    Two-Electron Energy =                 336.1198041910203642
    Total Energy =                       -270.1231542030150763

Computation Completed

*** tstop() called on node37.bme.utexas.edu at Mon Nov  2 16:54:27 2020
Module time:
	user time   =     175.61 seconds =       2.93 minutes
	system time =      38.61 seconds =       0.64 minutes
	total time  =         48 seconds =       0.80 minutes
Total time:
	user time   =     175.61 seconds =       2.93 minutes
	system time =      38.61 seconds =       0.64 minutes
	total time  =         48 seconds =       0.80 minutes
   => Loading Basis Set <=

    Name: (AUG-CC-PVTZ AUX)
    Role: RIFIT
    Keyword: DF_BASIS_MP2
    atoms 1    entry O          line   264 file /home/xy3866/psi4conda/share/psi4/basis/aug-cc-pvtz-ri.gbs 
    atoms 2-6  entry C          line   148 file /home/xy3866/psi4conda/share/psi4/basis/aug-cc-pvtz-ri.gbs 
    atoms 7-16 entry H          line    30 file /home/xy3866/psi4conda/share/psi4/basis/aug-cc-pvtz-ri.gbs 


*** tstart() called on node37.bme.utexas.edu
*** at Mon Nov  2 16:54:27 2020


  //>>>>>>>>>>>>>>>>>>>>>>>>>>>>>>>>>>>//
  //               DFMP2               //
  //<<<<<<<<<<<<<<<<<<<<<<<<<<<<<<<<<<<//

	 --------------------------------------------------------
	                          DF-MP2                         
	      2nd-Order Density-Fitted Moller-Plesset Theory     
	              RMP2 Wavefunction,   8 Threads             
	                                                         
	        Rob Parrish, Justin Turney, Andy Simmonett,      
	           Ed Hohenstein, and C. David Sherrill          
	 --------------------------------------------------------

   => Auxiliary Basis Set <=

  Basis Set: (AUG-CC-PVTZ AUX)
    Blend: AUG-CC-PVTZ-RI
    Number of shells: 308
    Number of basis function: 1096
    Number of Cartesian functions: 1366
    Spherical Harmonics?: true
    Max angular momentum: 4

	 --------------------------------------------------------
	                 NBF =   506, NAUX =  1096
	 --------------------------------------------------------
	   CLASS    FOCC     OCC    AOCC    AVIR     VIR    FVIR
	   PAIRS       0      24      24     482     482       0
	 --------------------------------------------------------

  DFHelper Memory: AOs need 2.104 GiB; user supplied 22.352 GiB. Using in-core AOs.


         ------------------------------------------------------------
                                     CPHF                           
                                  Rob Parrish                       
         ------------------------------------------------------------

  ==> Geometry <==

    Molecular point group: c1
    Full point group: C1

    Geometry (in Angstrom), charge = 0, multiplicity = 1:

       Center              X                  Y                   Z               Mass       
    ------------   -----------------  -----------------  -----------------  -----------------
         O           -0.929638705720     1.122164812245    -0.716156240734    15.994914619570
         C            0.684515294280    -0.272679187755     0.382647759266    12.000000000000
         C            1.234814794280    -1.272590187755    -0.651458440734    12.000000000000
         C            1.596789294280     0.940860812245     0.486970759266    12.000000000000
         C           -0.727316005720     0.179458312245     0.046938059266    12.000000000000
         C           -1.859202705720    -0.705400187755     0.519779759266    12.000000000000
         H            0.645195294280    -0.789509187755     1.350161759266     1.007825032230
         H            1.214350294280    -0.785972187755    -1.657752240734     1.007825032230
         H            2.199060294280    -1.605604187755    -0.430348240734     1.007825032230
         H            0.545196294280    -2.149977187755    -0.746405240734     1.007825032230
         H            1.245838294280     1.638465812245     1.252500759266     1.007825032230
         H            1.616218294280     1.473911812245    -0.463479240734     1.007825032230
         H            2.613493294280     0.632387812245     0.744349759266     1.007825032230
         H           -1.686328705720    -1.765081187755     0.274980759266     1.007825032230
         H           -2.799782705720    -0.367182187755     0.081307759266     1.007825032230
         H           -1.907795705720    -0.632120187755     1.615196759266     1.007825032230

  Nuclear repulsion =  244.667333300303113
  Reference energy  = -270.123154203015076

  ==> Basis Set <==

  Basis Set: AUG-CC-PVTZ
    Blend: AUG-CC-PVTZ
    Number of shells: 174
    Number of basis function: 506
    Number of Cartesian functions: 580
    Spherical Harmonics?: true
    Max angular momentum: 3

  ==> CGRSolver (by Rob Parrish) <==

   Number of roots    =         1
   Preconditioning    =    JACOBI
   Convergence cutoff =     1E-06
   Maximum iterations =       100

  ==> CPHFRHamiltonian (by Rob Parrish) <== 

  ==> MemDFJK: Density-Fitted J/K Matrices <==

    J tasked:                   Yes
    K tasked:                   Yes
    wK tasked:                   No
    OpenMP threads:               8
    Memory [MiB]:             22888
    Algorithm:                 Disk
    Schwarz Cutoff:           1E-12
    Mask sparsity (%):       1.9036
    Fitting Condition:        1E-10

   => Auxiliary Basis Set <=

  Basis Set: (AUG-CC-PVTZ AUX)
    Blend: AUG-CC-PVTZ-JKFIT
    Number of shells: 320
    Number of basis function: 1084
    Number of Cartesian functions: 1336
    Spherical Harmonics?: true
    Max angular momentum: 4

  ==> CPHF Iterations <==

  => Iterations <=

             Iter  Converged  Remaining    Residual
  CGR           1          0          1   1.132E-01
  CGR           2          0          1   3.327E-02
  CGR           3          0          1   1.051E-02
  CGR           4          0          1   3.760E-03
  CGR           5          0          1   1.452E-03
  CGR           6          0          1   5.132E-04
  CGR           7          0          1   1.063E-04
  CGR           8          0          1   2.805E-05
  CGR           9          0          1   6.157E-06
  CGR          10          0          1   1.757E-06
  CGR          11          1          0   4.608E-07

    CGRSolver converged.

	-----------------------------------------------------------
	 ==================> DF-MP2 Energies <==================== 
	-----------------------------------------------------------
	 Reference Energy          =    -270.1231542030150763 [Eh]
	 Singles Energy            =      -0.0000000000000000 [Eh]
	 Same-Spin Energy          =      -0.2742749841654721 [Eh]
	 Opposite-Spin Energy      =      -0.9494711707562740 [Eh]
	 Correlation Energy        =      -1.2237461549217461 [Eh]
	 Total Energy              =    -271.3469003579368177 [Eh]
	-----------------------------------------------------------
	 ================> DF-SCS-MP2 Energies <================== 
	-----------------------------------------------------------
	 SCS Same-Spin Scale       =       0.3333333333333333 [-]
	 SCS Opposite-Spin Scale   =       1.2000000000000000 [-]
	 SCS Same-Spin Energy      =      -0.0914249947218240 [Eh]
	 SCS Opposite-Spin Energy  =      -1.1393654049075288 [Eh]
	 SCS Correlation Energy    =      -1.2307903996293528 [Eh]
	 SCS Total Energy          =    -271.3539446026444466 [Eh]
	-----------------------------------------------------------



Properties will be evaluated at  -0.000000,  -0.000000,   0.000000 [a0]

Properties computed using the MP2 density matrix

  Nuclear Dipole Moment: [e a0]
     X:     3.4505      Y:    -4.0732      Z:     1.8907

  Electronic Dipole Moment: [e a0]
     X:    -3.2117      Y:     3.1843      Z:    -1.2731

  Dipole Moment: [e a0]
     X:     0.2389      Y:    -0.8890      Z:     0.6176     Total:     1.1085

  Dipole Moment: [D]
     X:     0.6071      Y:    -2.2596      Z:     1.5698     Total:     2.8175


*** tstop() called on node37.bme.utexas.edu at Mon Nov  2 16:55:51 2020
Module time:
	user time   =     393.34 seconds =       6.56 minutes
	system time =      58.12 seconds =       0.97 minutes
	total time  =         84 seconds =       1.40 minutes
Total time:
	user time   =     569.12 seconds =       9.49 minutes
	system time =      96.73 seconds =       1.61 minutes
	total time  =        132 seconds =       2.20 minutes

    Psi4 stopped on: Monday, 02 November 2020 04:55PM
    Psi4 wall time for execution: 0:02:11.68

*** Psi4 exiting successfully. Buy a developer a beer!
