
    -----------------------------------------------------------------------
          Psi4: An Open-Source Ab Initio Electronic Structure Package
                               Psi4 1.3.2 release

                         Git: Rev {HEAD} ecbda83 


    R. M. Parrish, L. A. Burns, D. G. A. Smith, A. C. Simmonett,
    A. E. DePrince III, E. G. Hohenstein, U. Bozkaya, A. Yu. Sokolov,
    R. Di Remigio, R. M. Richard, J. F. Gonthier, A. M. James,
    H. R. McAlexander, A. Kumar, M. Saitow, X. Wang, B. P. Pritchard,
    P. Verma, H. F. Schaefer III, K. Patkowski, R. A. King, E. F. Valeev,
    F. A. Evangelista, J. M. Turney, T. D. Crawford, and C. D. Sherrill,
    J. Chem. Theory Comput. 13(7) pp 3185--3197 (2017).
    (doi: 10.1021/acs.jctc.7b00174)


                         Additional Contributions by
    P. Kraus, H. Kruse, M. H. Lechner, M. C. Schieber, R. A. Shaw,
    A. Alenaizan, R. Galvelis, Z. L. Glick, S. Lehtola, and J. P. Misiewicz

    -----------------------------------------------------------------------


    Psi4 started on: Tuesday, 03 November 2020 02:48PM

    Process ID: 87332
    Host:       node142.bme.utexas.edu
    PSIDATADIR: /home/xy3866/psi4conda/share/psi4
    Memory:     500.0 MiB
    Threads:    8
    
  ==> Input File <==

--------------------------------------------------------------------------
#psi4
#
memory 32 gb

molecule  {
0 1
 Br       -1.8064804     0.0332886    -0.0000596
  C        0.1006220     0.0000530     0.0000060
  C        0.7815690     1.2175950     0.0000440
  C        0.7815260    -1.2175610     0.0000100
  C        2.1776820     1.2083560     0.0000890
  C        2.1776190    -1.2084040     0.0000560
  C        2.8781420    -0.0000300     0.0000940
  H        0.2284300     2.1526090     0.0000410
  H        0.2282920    -2.1525150    -0.0000210
  H        2.7160930     2.1530860     0.0001180
  H        2.7160100    -2.1531480     0.0000600
  H        3.9651640    -0.0000500     0.0001280
units angstrom
no_reorient  #important for SAPT in psi4, default
symmetry c1  #important for SAPT in psi4, default
}

set PROPERTIES_ORIGIN ["COM"]
properties('MP2/aug-cc-pvtz', properties = ['dipole'])
--------------------------------------------------------------------------

  Memory set to  29.802 GiB by Python driver.
    SCF Algorithm Type (re)set to DF.

*** tstart() called on node142.bme.utexas.edu
*** at Tue Nov  3 14:48:09 2020

   => Loading Basis Set <=

    Name: AUG-CC-PVTZ
    Role: ORBITAL
    Keyword: BASIS
    atoms 1    entry BR         line  4204 file /home/xy3866/psi4conda/share/psi4/basis/aug-cc-pvtz.gbs 
    atoms 2-7  entry C          line   235 file /home/xy3866/psi4conda/share/psi4/basis/aug-cc-pvtz.gbs 
    atoms 8-12 entry H          line    36 file /home/xy3866/psi4conda/share/psi4/basis/aug-cc-pvtz.gbs 


         ---------------------------------------------------------
                                   SCF
               by Justin Turney, Rob Parrish, Andy Simmonett
                          and Daniel G. A. Smith
                              RHF Reference
                        8 Threads,  30517 MiB Core
         ---------------------------------------------------------

  ==> Geometry <==

    Molecular point group: c1
    Full point group: C1

    Geometry (in Angstrom), charge = 0, multiplicity = 1:

       Center              X                  Y                   Z               Mass       
    ------------   -----------------  -----------------  -----------------  -----------------
         BR          -1.640618421769     0.016443168011    -0.000054553868    78.918337600000
         C            0.266483978231    -0.016792431989     0.000011046132    12.000000000000
         C            0.947430978231     1.200749568011     0.000049046132    12.000000000000
         C            0.947387978231    -1.234406431989     0.000015046132    12.000000000000
         C            2.343543978231     1.191510568011     0.000094046132    12.000000000000
         C            2.343480978231    -1.225249431989     0.000061046132    12.000000000000
         C            3.044003978231    -0.016875431989     0.000099046132    12.000000000000
         H            0.394291978231     2.135763568011     0.000046046132     1.007825032230
         H            0.394153978231    -2.169360431989    -0.000015953868     1.007825032230
         H            2.881954978231     2.136240568011     0.000123046132     1.007825032230
         H            2.881871978231    -2.169993431989     0.000065046132     1.007825032230
         H            4.131025978231    -0.016895431989     0.000133046132     1.007825032230

  Running in c1 symmetry.

  Rotational constants: A =      0.18876  B =      0.03292  C =      0.02803 [cm^-1]
  Rotational constants: A =   5658.86592  B =    986.85490  C =    840.31209 [MHz]
  Nuclear repulsion =  430.096055919889579

  Charge       = 0
  Multiplicity = 1
  Electrons    = 76
  Nalpha       = 38
  Nbeta        = 38

  ==> Algorithm <==

  SCF Algorithm Type is DF.
  DIIS enabled.
  MOM disabled.
  Fractional occupation disabled.
  Guess Type is SAD.
  Energy threshold   = 1.00e-10
  Density threshold  = 1.00e-10
  Integral threshold = 0.00e+00

  ==> Primary Basis <==

  Basis Set: AUG-CC-PVTZ
    Blend: AUG-CC-PVTZ
    Number of shells: 148
    Number of basis function: 450
    Number of Cartesian functions: 524
    Spherical Harmonics?: true
    Max angular momentum: 3

   => Loading Basis Set <=

    Name: (AUG-CC-PVTZ AUX)
    Role: JKFIT
    Keyword: DF_BASIS_SCF
    atoms 1    entry BR         line  1492 file /home/xy3866/psi4conda/share/psi4/basis/aug-cc-pvtz-jkfit.gbs 
    atoms 2-7  entry C          line   162 file /home/xy3866/psi4conda/share/psi4/basis/aug-cc-pvtz-jkfit.gbs 
    atoms 8-12 entry H          line    70 file /home/xy3866/psi4conda/share/psi4/basis/aug-cc-pvtz-jkfit.gbs 

  ==> Pre-Iterations <==

   -------------------------------------------------------
    Irrep   Nso     Nmo     Nalpha   Nbeta   Ndocc  Nsocc
   -------------------------------------------------------
     A        450     450       0       0       0       0
   -------------------------------------------------------
    Total     450     450      38      38      38       0
   -------------------------------------------------------

  ==> Integral Setup <==

  DFHelper Memory: AOs need 1.699 GiB; user supplied 22.352 GiB. Using in-core AOs.

  ==> MemDFJK: Density-Fitted J/K Matrices <==

    J tasked:                   Yes
    K tasked:                   Yes
    wK tasked:                   No
    OpenMP threads:               8
    Memory [MiB]:             22888
    Algorithm:                 Core
    Schwarz Cutoff:           1E-12
    Mask sparsity (%):       1.5249
    Fitting Condition:        1E-10

   => Auxiliary Basis Set <=

  Basis Set: (AUG-CC-PVTZ AUX)
    Blend: AUG-CC-PVTZ-JKFIT
    Number of shells: 308
    Number of basis function: 1102
    Number of Cartesian functions: 1390
    Spherical Harmonics?: true
    Max angular momentum: 4

  Minimum eigenvalue in the overlap matrix is 6.9008692713E-07.
  Using Symmetric Orthogonalization.

  SCF Guess: Superposition of Atomic Densities via on-the-fly atomic UHF.

  ==> Iterations <==

                           Total Energy        Delta E     RMS |[F,P]|

   @DF-RHF iter SAD: -2800.54489775664024   -2.80054e+03   0.00000e+00 
   @DF-RHF iter   1: -2802.34964052952273   -1.80474e+00   2.38366e-03 DIIS
   @DF-RHF iter   2: -2802.59875071610759   -2.49110e-01   1.08520e-03 DIIS
   @DF-RHF iter   3: -2802.65473036188587   -5.59796e-02   1.10272e-04 DIIS
   @DF-RHF iter   4: -2802.65647217559672   -1.74181e-03   6.96292e-05 DIIS
   @DF-RHF iter   5: -2802.65702704564455   -5.54870e-04   1.03796e-05 DIIS
   @DF-RHF iter   6: -2802.65705645368598   -2.94080e-05   5.61487e-06 DIIS
   @DF-RHF iter   7: -2802.65706382115241   -7.36747e-06   2.23339e-06 DIIS
   @DF-RHF iter   8: -2802.65706647123079   -2.65008e-06   8.45887e-07 DIIS
   @DF-RHF iter   9: -2802.65706692729418   -4.56063e-07   3.15872e-07 DIIS
   @DF-RHF iter  10: -2802.65706697711084   -4.98167e-08   1.45664e-07 DIIS
   @DF-RHF iter  11: -2802.65706698649501   -9.38417e-09   3.91302e-08 DIIS
   @DF-RHF iter  12: -2802.65706698710073   -6.05723e-10   7.47888e-09 DIIS
   @DF-RHF iter  13: -2802.65706698711983   -1.90994e-11   3.64695e-09 DIIS
   @DF-RHF iter  14: -2802.65706698711483    5.00222e-12   1.06602e-09 DIIS
   @DF-RHF iter  15: -2802.65706698711574   -9.09495e-13   2.76398e-10 DIIS
   @DF-RHF iter  16: -2802.65706698712074   -5.00222e-12   9.70865e-11 DIIS
  Energy and wave function converged.


  ==> Post-Iterations <==

    Orbital Energies [Eh]
    ---------------------

    Doubly Occupied:                                                      

       1A   -490.024738     2A    -65.164477     3A    -58.519787  
       4A    -58.518406     5A    -58.518384     6A    -11.303596  
       7A    -11.255914     8A    -11.255227     9A    -11.253542  
      10A    -11.253129    11A    -11.250290    12A     -9.837209  
      13A     -7.448783    14A     -7.442020    15A     -7.442001  
      16A     -3.192533    17A     -3.189020    18A     -3.188830  
      19A     -3.180194    20A     -3.180187    21A     -1.174567  
      22A     -1.069860    23A     -1.032754    24A     -0.974099  
      25A     -0.845412    26A     -0.817688    27A     -0.709707  
      28A     -0.644629    29A     -0.643808    30A     -0.604823  
      31A     -0.573844    32A     -0.532885    33A     -0.515898  
      34A     -0.491288    35A     -0.438594    36A     -0.416431  
      37A     -0.353310    38A     -0.335337  

    Virtual:                                                              

      39A      0.026916    40A      0.033096    41A      0.038019  
      42A      0.049817    43A      0.051927    44A      0.071124  
      45A      0.078075    46A      0.091889    47A      0.095353  
      48A      0.096284    49A      0.105179    50A      0.106163  
      51A      0.114696    52A      0.115551    53A      0.116812  
      54A      0.122367    55A      0.132169    56A      0.137908  
      57A      0.141946    58A      0.142943    59A      0.143438  
      60A      0.149652    61A      0.151483    62A      0.155327  
      63A      0.161028    64A      0.164260    65A      0.171578  
      66A      0.190873    67A      0.192528    68A      0.229139  
      69A      0.231136    70A      0.238970    71A      0.246533  
      72A      0.251363    73A      0.259597    74A      0.267780  
      75A      0.273902    76A      0.287189    77A      0.294002  
      78A      0.298853    79A      0.300727    80A      0.310490  
      81A      0.314576    82A      0.317318    83A      0.322332  
      84A      0.324438    85A      0.327121    86A      0.334855  
      87A      0.340101    88A      0.359887    89A      0.372403  
      90A      0.374001    91A      0.375835    92A      0.387951  
      93A      0.418875    94A      0.419748    95A      0.421579  
      96A      0.427471    97A      0.430416    98A      0.432834  
      99A      0.434951   100A      0.435943   101A      0.447646  
     102A      0.459806   103A      0.463867   104A      0.464348  
     105A      0.470324   106A      0.478610   107A      0.480535  
     108A      0.488876   109A      0.491371   110A      0.504953  
     111A      0.506221   112A      0.512300   113A      0.523209  
     114A      0.524208   115A      0.530060   116A      0.534027  
     117A      0.549421   118A      0.556810   119A      0.571841  
     120A      0.573684   121A      0.600172   122A      0.607199  
     123A      0.612496   124A      0.625417   125A      0.630653  
     126A      0.633541   127A      0.643019   128A      0.646062  
     129A      0.646249   130A      0.663383   131A      0.678880  
     132A      0.692058   133A      0.698582   134A      0.700702  
     135A      0.716641   136A      0.719270   137A      0.754384  
     138A      0.761427   139A      0.761655   140A      0.765614  
     141A      0.768933   142A      0.791385   143A      0.812783  
     144A      0.815775   145A      0.831934   146A      0.840386  
     147A      0.841111   148A      0.855364   149A      0.857026  
     150A      0.857819   151A      0.865688   152A      0.873176  
     153A      0.881437   154A      0.882678   155A      0.885877  
     156A      0.896982   157A      0.898558   158A      0.919331  
     159A      0.922838   160A      0.923513   161A      0.931588  
     162A      0.945329   163A      0.953596   164A      0.965648  
     165A      0.966353   166A      0.979539   167A      0.987302  
     168A      0.994010   169A      1.028060   170A      1.028354  
     171A      1.034237   172A      1.043970   173A      1.044993  
     174A      1.057482   175A      1.061047   176A      1.061930  
     177A      1.075564   178A      1.077428   179A      1.084936  
     180A      1.088448   181A      1.091097   182A      1.092007  
     183A      1.110194   184A      1.118187   185A      1.120805  
     186A      1.129951   187A      1.140896   188A      1.165146  
     189A      1.165198   190A      1.167964   191A      1.186511  
     192A      1.188290   193A      1.197421   194A      1.208107  
     195A      1.213297   196A      1.228392   197A      1.232621  
     198A      1.234970   199A      1.254686   200A      1.258297  
     201A      1.273363   202A      1.295211   203A      1.306818  
     204A      1.325174   205A      1.327088   206A      1.333596  
     207A      1.367290   208A      1.374974   209A      1.379531  
     210A      1.391777   211A      1.393561   212A      1.395729  
     213A      1.403873   214A      1.409857   215A      1.431287  
     216A      1.457294   217A      1.464674   218A      1.476839  
     219A      1.484244   220A      1.494821   221A      1.518258  
     222A      1.530276   223A      1.566771   224A      1.567260  
     225A      1.634751   226A      1.647741   227A      1.672001  
     228A      1.674843   229A      1.684016   230A      1.693516  
     231A      1.695628   232A      1.733226   233A      1.743723  
     234A      1.749964   235A      1.757597   236A      1.802070  
     237A      1.804610   238A      1.818178   239A      1.824086  
     240A      1.826085   241A      1.841455   242A      1.851379  
     243A      1.865215   244A      1.884468   245A      1.889622  
     246A      1.892291   247A      1.896351   248A      1.942598  
     249A      1.963597   250A      1.969860   251A      1.970641  
     252A      1.976305   253A      1.993313   254A      2.004563  
     255A      2.014922   256A      2.029105   257A      2.029283  
     258A      2.038304   259A      2.052424   260A      2.076201  
     261A      2.082891   262A      2.085023   263A      2.089549  
     264A      2.125865   265A      2.145989   266A      2.185331  
     267A      2.227666   268A      2.234167   269A      2.260948  
     270A      2.280674   271A      2.291985   272A      2.309231  
     273A      2.316596   274A      2.341130   275A      2.352385  
     276A      2.359961   277A      2.364077   278A      2.374132  
     279A      2.375561   280A      2.401540   281A      2.408584  
     282A      2.428832   283A      2.435514   284A      2.443707  
     285A      2.461461   286A      2.507735   287A      2.509464  
     288A      2.514226   289A      2.517181   290A      2.547936  
     291A      2.551630   292A      2.566585   293A      2.624694  
     294A      2.651392   295A      2.673851   296A      2.731120  
     297A      2.742105   298A      2.745053   299A      2.749342  
     300A      2.759522   301A      2.797438   302A      2.806995  
     303A      2.896819   304A      2.933044   305A      2.950212  
     306A      3.005130   307A      3.087816   308A      3.135997  
     309A      3.136486   310A      3.144484   311A      3.208906  
     312A      3.211896   313A      3.217256   314A      3.222300  
     315A      3.300082   316A      3.323121   317A      3.326039  
     318A      3.340072   319A      3.371165   320A      3.380472  
     321A      3.388906   322A      3.395202   323A      3.410663  
     324A      3.421198   325A      3.431174   326A      3.468280  
     327A      3.519872   328A      3.530789   329A      3.536598  
     330A      3.538113   331A      3.549707   332A      3.561877  
     333A      3.568370   334A      3.568757   335A      3.627426  
     336A      3.641770   337A      3.650601   338A      3.653092  
     339A      3.661822   340A      3.737287   341A      3.743432  
     342A      3.786047   343A      3.802318   344A      3.812090  
     345A      3.829526   346A      3.831340   347A      3.832385  
     348A      3.837471   349A      3.868251   350A      3.872298  
     351A      3.887343   352A      3.911688   353A      3.939458  
     354A      3.948793   355A      3.968208   356A      3.996052  
     357A      4.003531   358A      4.050362   359A      4.054085  
     360A      4.070938   361A      4.079757   362A      4.099701  
     363A      4.100823   364A      4.107117   365A      4.114440  
     366A      4.151921   367A      4.165705   368A      4.182543  
     369A      4.200128   370A      4.244839   371A      4.247119  
     372A      4.280496   373A      4.295789   374A      4.316452  
     375A      4.322843   376A      4.335208   377A      4.365556  
     378A      4.377019   379A      4.386569   380A      4.410255  
     381A      4.417933   382A      4.420055   383A      4.423763  
     384A      4.449271   385A      4.451919   386A      4.507798  
     387A      4.551877   388A      4.581470   389A      4.646227  
     390A      4.697852   391A      4.701190   392A      4.703426  
     393A      4.708513   394A      4.713205   395A      4.763640  
     396A      4.814000   397A      4.871794   398A      4.873122  
     399A      4.888454   400A      4.893757   401A      4.949724  
     402A      4.956181   403A      5.029408   404A      5.052567  
     405A      5.067015   406A      5.090285   407A      5.116331  
     408A      5.123552   409A      5.126352   410A      5.133063  
     411A      5.133694   412A      5.152836   413A      5.226317  
     414A      5.252914   415A      5.262335   416A      5.273117  
     417A      5.276559   418A      5.284801   419A      5.315704  
     420A      5.407387   421A      5.431973   422A      5.436071  
     423A      5.527870   424A      5.604753   425A      5.704367  
     426A      5.737997   427A      5.754864   428A      5.776191  
     429A      5.848258   430A      6.013127   431A      6.039025  
     432A      6.084095   433A      6.174829   434A      6.178571  
     435A      6.270643   436A      6.305414   437A      6.427742  
     438A      6.548114   439A      6.670322   440A      6.775669  
     441A      6.842733   442A      6.968307   443A      7.100552  
     444A      7.232477   445A     15.745604   446A     15.891834  
     447A     17.158696   448A     18.829569   449A     19.152817  
     450A     19.511052  

    Final Occupation by Irrep:
              A 
    DOCC [    38 ]

  @DF-RHF Final Energy: -2802.65706698712074

   => Energetics <=

    Nuclear Repulsion Energy =            430.0960559198895794
    One-Electron Energy =               -4748.3198436004795440
    Two-Electron Energy =                1515.5667206934692786
    Total Energy =                      -2802.6570669871207429

Computation Completed

*** tstop() called on node142.bme.utexas.edu at Tue Nov  3 14:48:40 2020
Module time:
	user time   =     177.89 seconds =       2.96 minutes
	system time =       6.07 seconds =       0.10 minutes
	total time  =         31 seconds =       0.52 minutes
Total time:
	user time   =     177.89 seconds =       2.96 minutes
	system time =       6.07 seconds =       0.10 minutes
	total time  =         31 seconds =       0.52 minutes
   => Loading Basis Set <=

    Name: (AUG-CC-PVTZ AUX)
    Role: RIFIT
    Keyword: DF_BASIS_MP2
    atoms 1    entry BR         line  1248 file /home/xy3866/psi4conda/share/psi4/basis/aug-cc-pvtz-ri.gbs 
    atoms 2-7  entry C          line   148 file /home/xy3866/psi4conda/share/psi4/basis/aug-cc-pvtz-ri.gbs 
    atoms 8-12 entry H          line    30 file /home/xy3866/psi4conda/share/psi4/basis/aug-cc-pvtz-ri.gbs 


*** tstart() called on node142.bme.utexas.edu
*** at Tue Nov  3 14:48:40 2020


  //>>>>>>>>>>>>>>>>>>>>>>>>>>>>>>>>>>>//
  //               DFMP2               //
  //<<<<<<<<<<<<<<<<<<<<<<<<<<<<<<<<<<<//

	 --------------------------------------------------------
	                          DF-MP2                         
	      2nd-Order Density-Fitted Moller-Plesset Theory     
	              RMP2 Wavefunction,   8 Threads             
	                                                         
	        Rob Parrish, Justin Turney, Andy Simmonett,      
	           Ed Hohenstein, and C. David Sherrill          
	 --------------------------------------------------------

   => Auxiliary Basis Set <=

  Basis Set: (AUG-CC-PVTZ AUX)
    Blend: AUG-CC-PVTZ-RI
    Number of shells: 281
    Number of basis function: 1057
    Number of Cartesian functions: 1352
    Spherical Harmonics?: true
    Max angular momentum: 5

	 --------------------------------------------------------
	                 NBF =   450, NAUX =  1057
	 --------------------------------------------------------
	   CLASS    FOCC     OCC    AOCC    AVIR     VIR    FVIR
	   PAIRS       0      38      38     412     412       0
	 --------------------------------------------------------

  DFHelper Memory: AOs need 1.699 GiB; user supplied 22.352 GiB. Using in-core AOs.


         ------------------------------------------------------------
                                     CPHF                           
                                  Rob Parrish                       
         ------------------------------------------------------------

  ==> Geometry <==

    Molecular point group: c1
    Full point group: C1

    Geometry (in Angstrom), charge = 0, multiplicity = 1:

       Center              X                  Y                   Z               Mass       
    ------------   -----------------  -----------------  -----------------  -----------------
         BR          -1.640618421769     0.016443168011    -0.000054553868    78.918337600000
         C            0.266483978231    -0.016792431989     0.000011046132    12.000000000000
         C            0.947430978231     1.200749568011     0.000049046132    12.000000000000
         C            0.947387978231    -1.234406431989     0.000015046132    12.000000000000
         C            2.343543978231     1.191510568011     0.000094046132    12.000000000000
         C            2.343480978231    -1.225249431989     0.000061046132    12.000000000000
         C            3.044003978231    -0.016875431989     0.000099046132    12.000000000000
         H            0.394291978231     2.135763568011     0.000046046132     1.007825032230
         H            0.394153978231    -2.169360431989    -0.000015953868     1.007825032230
         H            2.881954978231     2.136240568011     0.000123046132     1.007825032230
         H            2.881871978231    -2.169993431989     0.000065046132     1.007825032230
         H            4.131025978231    -0.016895431989     0.000133046132     1.007825032230

  Nuclear repulsion =  430.096055919889636
  Reference energy  = -2802.657066987120743

  ==> Basis Set <==

  Basis Set: AUG-CC-PVTZ
    Blend: AUG-CC-PVTZ
    Number of shells: 148
    Number of basis function: 450
    Number of Cartesian functions: 524
    Spherical Harmonics?: true
    Max angular momentum: 3

  ==> CGRSolver (by Rob Parrish) <==

   Number of roots    =         1
   Preconditioning    =    JACOBI
   Convergence cutoff =     1E-06
   Maximum iterations =       100

  ==> CPHFRHamiltonian (by Rob Parrish) <== 

  ==> MemDFJK: Density-Fitted J/K Matrices <==

    J tasked:                   Yes
    K tasked:                   Yes
    wK tasked:                   No
    OpenMP threads:               8
    Memory [MiB]:             22888
    Algorithm:                 Core
    Schwarz Cutoff:           1E-12
    Mask sparsity (%):       1.5249
    Fitting Condition:        1E-10

   => Auxiliary Basis Set <=

  Basis Set: (AUG-CC-PVTZ AUX)
    Blend: AUG-CC-PVTZ-JKFIT
    Number of shells: 308
    Number of basis function: 1102
    Number of Cartesian functions: 1390
    Spherical Harmonics?: true
    Max angular momentum: 4

  ==> CPHF Iterations <==

  => Iterations <=

             Iter  Converged  Remaining    Residual
  CGR           1          0          1   9.295E-02
  CGR           2          0          1   2.580E-02
  CGR           3          0          1   6.995E-03
  CGR           4          0          1   3.653E-03
  CGR           5          0          1   1.198E-03
  CGR           6          0          1   4.748E-04
  CGR           7          0          1   2.146E-04
  CGR           8          0          1   8.573E-05
  CGR           9          0          1   2.628E-05
  CGR          10          0          1   6.410E-06
  CGR          11          0          1   1.694E-06
  CGR          12          1          0   5.769E-07

    CGRSolver converged.

	-----------------------------------------------------------
	 ==================> DF-MP2 Energies <==================== 
	-----------------------------------------------------------
	 Reference Energy          =   -2802.6570669871207429 [Eh]
	 Singles Energy            =      -0.0000000000000000 [Eh]
	 Same-Spin Energy          =      -0.3494870259250868 [Eh]
	 Opposite-Spin Energy      =      -1.0129259612508439 [Eh]
	 Correlation Energy        =      -1.3624129871759307 [Eh]
	 Total Energy              =   -2804.0194799742967007 [Eh]
	-----------------------------------------------------------
	 ================> DF-SCS-MP2 Energies <================== 
	-----------------------------------------------------------
	 SCS Same-Spin Scale       =       0.3333333333333333 [-]
	 SCS Opposite-Spin Scale   =       1.2000000000000000 [-]
	 SCS Same-Spin Energy      =      -0.1164956753083623 [Eh]
	 SCS Opposite-Spin Energy  =      -1.2155111535010126 [Eh]
	 SCS Correlation Energy    =      -1.3320068288093749 [Eh]
	 SCS Total Energy          =   -2803.9890738159301691 [Eh]
	-----------------------------------------------------------



Properties will be evaluated at  -0.000000,   0.000000,  -0.000000 [a0]

Properties computed using the MP2 density matrix

  Nuclear Dipole Moment: [e a0]
     X:    23.8401      Y:    -0.2175      Z:     0.0008

  Electronic Dipole Moment: [e a0]
     X:   -23.1420      Y:     0.2133      Z:    -0.0008

  Dipole Moment: [e a0]
     X:     0.6982      Y:    -0.0043      Z:     0.0000     Total:     0.6982

  Dipole Moment: [D]
     X:     1.7745      Y:    -0.0109      Z:     0.0001     Total:     1.7746


*** tstop() called on node142.bme.utexas.edu at Tue Nov  3 14:50:34 2020
Module time:
	user time   =     666.50 seconds =      11.11 minutes
	system time =      17.04 seconds =       0.28 minutes
	total time  =        114 seconds =       1.90 minutes
Total time:
	user time   =     845.29 seconds =      14.09 minutes
	system time =      23.17 seconds =       0.39 minutes
	total time  =        145 seconds =       2.42 minutes

    Psi4 stopped on: Tuesday, 03 November 2020 02:50PM
    Psi4 wall time for execution: 0:02:25.67

*** Psi4 exiting successfully. Buy a developer a beer!
