
    -----------------------------------------------------------------------
          Psi4: An Open-Source Ab Initio Electronic Structure Package
                               Psi4 1.3.2 release

                         Git: Rev {HEAD} ecbda83 


    R. M. Parrish, L. A. Burns, D. G. A. Smith, A. C. Simmonett,
    A. E. DePrince III, E. G. Hohenstein, U. Bozkaya, A. Yu. Sokolov,
    R. Di Remigio, R. M. Richard, J. F. Gonthier, A. M. James,
    H. R. McAlexander, A. Kumar, M. Saitow, X. Wang, B. P. Pritchard,
    P. Verma, H. F. Schaefer III, K. Patkowski, R. A. King, E. F. Valeev,
    F. A. Evangelista, J. M. Turney, T. D. Crawford, and C. D. Sherrill,
    J. Chem. Theory Comput. 13(7) pp 3185--3197 (2017).
    (doi: 10.1021/acs.jctc.7b00174)


                         Additional Contributions by
    P. Kraus, H. Kruse, M. H. Lechner, M. C. Schieber, R. A. Shaw,
    A. Alenaizan, R. Galvelis, Z. L. Glick, S. Lehtola, and J. P. Misiewicz

    -----------------------------------------------------------------------


    Psi4 started on: Monday, 09 November 2020 08:24AM

    Process ID: 8568
    Host:       node59.bme.utexas.edu
    PSIDATADIR: /home/xy3866/psi4conda/share/psi4
    Memory:     500.0 MiB
    Threads:    8
    
  ==> Input File <==

--------------------------------------------------------------------------
#psi4
#
memory 32 gb

molecule  {
0 1
  N        0.1712930    -1.0406060    -0.0000250
  N        1.5395640     0.7140220    -0.0006150
  C       -0.6486520     0.0688480    -0.0000100
  C       -2.1370900    -0.0166370     0.0000170
  C        0.2282658     1.1348910    -0.2997910
  C        1.4683060    -0.6083830     0.0003860
  H       -0.1378750    -2.0050800    -0.0000100
  H       -2.5173940    -0.5355380     0.8864280
  H       -2.5554930     0.9924890    -0.0004510
  H       -2.5174040    -0.5363680    -0.8859050
  H       -0.0216830     2.1883360     0.0002760
  H        2.3089220    -1.2898710     0.0005270
units angstrom
no_reorient  #important for SAPT in psi4, default
symmetry c1  #important for SAPT in psi4, default
}

set PROPERTIES_ORIGIN ["COM"]
properties('MP2/aug-cc-pvtz', properties = ['dipole'])
--------------------------------------------------------------------------

  Memory set to  29.802 GiB by Python driver.
    SCF Algorithm Type (re)set to DF.

*** tstart() called on node59.bme.utexas.edu
*** at Mon Nov  9 08:24:17 2020

   => Loading Basis Set <=

    Name: AUG-CC-PVTZ
    Role: ORBITAL
    Keyword: BASIS
    atoms 1-2  entry N          line   281 file /home/xy3866/psi4conda/share/psi4/basis/aug-cc-pvtz.gbs 
    atoms 3-6  entry C          line   235 file /home/xy3866/psi4conda/share/psi4/basis/aug-cc-pvtz.gbs 
    atoms 7-12 entry H          line    36 file /home/xy3866/psi4conda/share/psi4/basis/aug-cc-pvtz.gbs 


         ---------------------------------------------------------
                                   SCF
               by Justin Turney, Rob Parrish, Andy Simmonett
                          and Daniel G. A. Smith
                              RHF Reference
                        8 Threads,  30517 MiB Core
         ---------------------------------------------------------

  ==> Geometry <==

    Molecular point group: c1
    Full point group: C1

    Geometry (in Angstrom), charge = 0, multiplicity = 1:

       Center              X                  Y                   Z               Mass       
    ------------   -----------------  -----------------  -----------------  -----------------
         N            0.105436713385    -1.054939832195     0.043859585440    14.003074004430
         N            1.473707713385     0.699688167805     0.043269585440    14.003074004430
         C           -0.714508286615     0.054514167805     0.043874585440    12.000000000000
         C           -2.202946286615    -0.030970832195     0.043901585440    12.000000000000
         C            0.162409513385     1.120557167805    -0.255906414560    12.000000000000
         C            1.402449713385    -0.622716832195     0.044270585440    12.000000000000
         H           -0.203731286615    -2.019413832195     0.043874585440     1.007825032230
         H           -2.583250286615    -0.549871832195     0.930312585440     1.007825032230
         H           -2.621349286615     0.978155167805     0.043433585440     1.007825032230
         H           -2.583260286615    -0.550701832195    -0.842020414560     1.007825032230
         H           -0.087539286615     2.174002167805     0.044160585440     1.007825032230
         H            2.243065713385    -1.304204832195     0.044411585440     1.007825032230

  Running in c1 symmetry.

  Rotational constants: A =      0.29679  B =      0.11499  C =      0.08470 [cm^-1]
  Rotational constants: A =   8897.41392  B =   3447.17088  C =   2539.22816 [MHz]
  Nuclear repulsion =  222.733448702083223

  Charge       = 0
  Multiplicity = 1
  Electrons    = 44
  Nalpha       = 22
  Nbeta        = 22

  ==> Algorithm <==

  SCF Algorithm Type is DF.
  DIIS enabled.
  MOM disabled.
  Fractional occupation disabled.
  Guess Type is SAD.
  Energy threshold   = 1.00e-10
  Density threshold  = 1.00e-10
  Integral threshold = 0.00e+00

  ==> Primary Basis <==

  Basis Set: AUG-CC-PVTZ
    Blend: AUG-CC-PVTZ
    Number of shells: 138
    Number of basis function: 414
    Number of Cartesian functions: 480
    Spherical Harmonics?: true
    Max angular momentum: 3

   => Loading Basis Set <=

    Name: (AUG-CC-PVTZ AUX)
    Role: JKFIT
    Keyword: DF_BASIS_SCF
    atoms 1-2  entry N          line   224 file /home/xy3866/psi4conda/share/psi4/basis/aug-cc-pvtz-jkfit.gbs 
    atoms 3-6  entry C          line   162 file /home/xy3866/psi4conda/share/psi4/basis/aug-cc-pvtz-jkfit.gbs 
    atoms 7-12 entry H          line    70 file /home/xy3866/psi4conda/share/psi4/basis/aug-cc-pvtz-jkfit.gbs 

  ==> Pre-Iterations <==

   -------------------------------------------------------
    Irrep   Nso     Nmo     Nalpha   Nbeta   Ndocc  Nsocc
   -------------------------------------------------------
     A        414     414       0       0       0       0
   -------------------------------------------------------
    Total     414     414      22      22      22       0
   -------------------------------------------------------

  ==> Integral Setup <==

  DFHelper Memory: AOs need 1.182 GiB; user supplied 22.352 GiB. Using in-core AOs.

  ==> MemDFJK: Density-Fitted J/K Matrices <==

    J tasked:                   Yes
    K tasked:                   Yes
    wK tasked:                   No
    OpenMP threads:               8
    Memory [MiB]:             22888
    Algorithm:                 Core
    Schwarz Cutoff:           1E-12
    Mask sparsity (%):       1.5695
    Fitting Condition:        1E-10

   => Auxiliary Basis Set <=

  Basis Set: (AUG-CC-PVTZ AUX)
    Blend: AUG-CC-PVTZ-JKFIT
    Number of shells: 264
    Number of basis function: 900
    Number of Cartesian functions: 1116
    Spherical Harmonics?: true
    Max angular momentum: 4

  Minimum eigenvalue in the overlap matrix is 7.6785442422E-06.
  Using Symmetric Orthogonalization.

  SCF Guess: Superposition of Atomic Densities via on-the-fly atomic UHF.

  ==> Iterations <==

                           Total Energy        Delta E     RMS |[F,P]|

   @DF-RHF iter SAD:  -263.41656590807412   -2.63417e+02   0.00000e+00 
   @DF-RHF iter   1:  -263.73647083856355   -3.19905e-01   1.34373e-03 DIIS
   @DF-RHF iter   2:  -263.88081256286944   -1.44342e-01   6.96094e-04 DIIS
   @DF-RHF iter   3:  -263.91752215684471   -3.67096e-02   1.57785e-04 DIIS
   @DF-RHF iter   4:  -263.92017797533623   -2.65582e-03   6.81398e-05 DIIS
   @DF-RHF iter   5:  -263.92064219157402   -4.64216e-04   1.55884e-05 DIIS
   @DF-RHF iter   6:  -263.92068035369584   -3.81621e-05   6.78866e-06 DIIS
   @DF-RHF iter   7:  -263.92069038424802   -1.00306e-05   2.75643e-06 DIIS
   @DF-RHF iter   8:  -263.92069282627750   -2.44203e-06   1.05722e-06 DIIS
   @DF-RHF iter   9:  -263.92069329268236   -4.66405e-07   4.58854e-07 DIIS
   @DF-RHF iter  10:  -263.92069334274873   -5.00664e-08   1.44334e-07 DIIS
   @DF-RHF iter  11:  -263.92069334959001   -6.84128e-09   6.22123e-08 DIIS
   @DF-RHF iter  12:  -263.92069335065554   -1.06553e-09   2.65103e-08 DIIS
   @DF-RHF iter  13:  -263.92069335083659   -1.81046e-10   8.16190e-09 DIIS
   @DF-RHF iter  14:  -263.92069335085995   -2.33626e-11   3.08990e-09 DIIS
   @DF-RHF iter  15:  -263.92069335086296   -3.01270e-12   1.23219e-09 DIIS
   @DF-RHF iter  16:  -263.92069335086290    5.68434e-14   4.22610e-10 DIIS
   @DF-RHF iter  17:  -263.92069335086296   -5.68434e-14   1.76311e-10 DIIS
   @DF-RHF iter  18:  -263.92069335086296    0.00000e+00   5.48961e-11 DIIS
  Energy and wave function converged.


  ==> Post-Iterations <==

    Orbital Energies [Eh]
    ---------------------

    Doubly Occupied:                                                      

       1A    -15.621758     2A    -15.545897     3A    -11.294557  
       4A    -11.277921     5A    -11.243886     6A    -11.242288  
       7A     -1.332897     8A     -1.157719     9A     -1.044478  
      10A     -0.936498    11A     -0.817009    12A     -0.786260  
      13A     -0.719673    14A     -0.620154    15A     -0.612118  
      16A     -0.569321    17A     -0.563149    18A     -0.550981  
      19A     -0.535331    20A     -0.432076    21A     -0.390439  
      22A     -0.306930  

    Virtual:                                                              

      23A      0.020624    24A      0.031849    25A      0.041204  
      26A      0.042345    27A      0.052411    28A      0.061868  
      29A      0.081067    30A      0.086279    31A      0.097875  
      32A      0.102497    33A      0.110668    34A      0.113380  
      35A      0.121012    36A      0.131660    37A      0.135690  
      38A      0.140623    39A      0.142008    40A      0.143809  
      41A      0.148049    42A      0.156798    43A      0.166205  
      44A      0.174313    45A      0.189648    46A      0.198106  
      47A      0.204206    48A      0.207984    49A      0.223757  
      50A      0.230616    51A      0.238811    52A      0.244170  
      53A      0.254309    54A      0.259773    55A      0.274212  
      56A      0.294193    57A      0.304532    58A      0.308365  
      59A      0.310062    60A      0.319869    61A      0.321612  
      62A      0.330266    63A      0.337128    64A      0.338163  
      65A      0.346545    66A      0.350293    67A      0.362497  
      68A      0.368143    69A      0.377153    70A      0.380623  
      71A      0.391483    72A      0.397833    73A      0.404831  
      74A      0.411976    75A      0.420809    76A      0.431938  
      77A      0.433653    78A      0.445328    79A      0.451345  
      80A      0.457710    81A      0.461574    82A      0.465036  
      83A      0.472442    84A      0.480844    85A      0.490258  
      86A      0.500017    87A      0.502244    88A      0.506814  
      89A      0.523549    90A      0.528358    91A      0.535437  
      92A      0.543178    93A      0.547074    94A      0.550492  
      95A      0.555785    96A      0.570630    97A      0.590223  
      98A      0.600044    99A      0.612003   100A      0.629412  
     101A      0.642549   102A      0.650179   103A      0.664370  
     104A      0.669823   105A      0.687683   106A      0.705802  
     107A      0.708372   108A      0.720035   109A      0.725069  
     110A      0.740457   111A      0.747498   112A      0.775163  
     113A      0.777565   114A      0.783594   115A      0.791667  
     116A      0.807208   117A      0.813864   118A      0.826844  
     119A      0.830327   120A      0.842649   121A      0.865351  
     122A      0.875243   123A      0.882380   124A      0.888411  
     125A      0.891598   126A      0.905518   127A      0.914758  
     128A      0.924958   129A      0.927536   130A      0.934575  
     131A      0.947987   132A      0.953230   133A      0.976320  
     134A      0.989255   135A      0.990748   136A      1.005522  
     137A      1.008941   138A      1.012969   139A      1.030376  
     140A      1.039411   141A      1.041466   142A      1.046768  
     143A      1.063882   144A      1.069223   145A      1.086714  
     146A      1.089893   147A      1.097163   148A      1.109873  
     149A      1.117745   150A      1.126901   151A      1.132996  
     152A      1.137715   153A      1.147945   154A      1.157793  
     155A      1.170510   156A      1.191623   157A      1.196391  
     158A      1.201798   159A      1.210652   160A      1.225440  
     161A      1.231736   162A      1.237840   163A      1.247299  
     164A      1.267811   165A      1.276738   166A      1.280135  
     167A      1.298169   168A      1.313632   169A      1.329608  
     170A      1.337930   171A      1.345543   172A      1.346862  
     173A      1.374800   174A      1.395920   175A      1.405502  
     176A      1.429630   177A      1.432931   178A      1.441679  
     179A      1.455397   180A      1.479799   181A      1.495056  
     182A      1.498001   183A      1.515734   184A      1.517263  
     185A      1.531775   186A      1.536617   187A      1.559824  
     188A      1.573577   189A      1.575386   190A      1.602266  
     191A      1.620647   192A      1.625723   193A      1.654145  
     194A      1.666981   195A      1.695463   196A      1.696293  
     197A      1.709370   198A      1.718438   199A      1.730430  
     200A      1.745559   201A      1.756256   202A      1.761617  
     203A      1.766679   204A      1.802608   205A      1.809656  
     206A      1.834490   207A      1.839482   208A      1.863199  
     209A      1.874643   210A      1.910155   211A      1.929206  
     212A      1.934483   213A      1.941349   214A      1.974392  
     215A      1.992768   216A      1.994581   217A      2.023871  
     218A      2.036691   219A      2.046406   220A      2.075520  
     221A      2.080507   222A      2.095206   223A      2.126956  
     224A      2.133842   225A      2.142314   226A      2.152184  
     227A      2.171113   228A      2.182302   229A      2.193180  
     230A      2.205208   231A      2.215264   232A      2.236966  
     233A      2.246928   234A      2.257233   235A      2.286571  
     236A      2.301725   237A      2.317745   238A      2.324985  
     239A      2.356604   240A      2.390410   241A      2.396479  
     242A      2.414981   243A      2.429821   244A      2.453796  
     245A      2.468704   246A      2.523061   247A      2.558838  
     248A      2.572743   249A      2.596129   250A      2.601714  
     251A      2.645486   252A      2.666121   253A      2.683630  
     254A      2.721731   255A      2.760815   256A      2.790670  
     257A      2.822102   258A      2.843636   259A      2.951774  
     260A      2.960543   261A      3.006189   262A      3.080257  
     263A      3.160560   264A      3.179380   265A      3.198611  
     266A      3.212119   267A      3.286427   268A      3.327908  
     269A      3.354246   270A      3.368793   271A      3.397105  
     272A      3.434774   273A      3.461623   274A      3.483121  
     275A      3.495398   276A      3.511567   277A      3.540430  
     278A      3.571244   279A      3.586314   280A      3.619036  
     281A      3.630353   282A      3.642253   283A      3.646867  
     284A      3.673778   285A      3.687086   286A      3.705139  
     287A      3.718786   288A      3.743879   289A      3.756584  
     290A      3.775981   291A      3.807590   292A      3.827825  
     293A      3.844485   294A      3.857466   295A      3.878635  
     296A      3.899731   297A      3.903444   298A      3.923852  
     299A      3.929461   300A      3.956940   301A      3.971342  
     302A      3.987513   303A      4.020736   304A      4.025657  
     305A      4.048805   306A      4.058198   307A      4.076348  
     308A      4.091192   309A      4.096469   310A      4.121373  
     311A      4.144806   312A      4.152309   313A      4.163088  
     314A      4.167772   315A      4.182990   316A      4.224711  
     317A      4.232296   318A      4.244705   319A      4.258932  
     320A      4.291992   321A      4.319904   322A      4.320796  
     323A      4.349951   324A      4.367875   325A      4.412690  
     326A      4.415834   327A      4.448187   328A      4.474057  
     329A      4.483175   330A      4.508560   331A      4.527734  
     332A      4.542269   333A      4.561056   334A      4.593424  
     335A      4.647656   336A      4.659704   337A      4.686505  
     338A      4.714328   339A      4.743992   340A      4.781462  
     341A      4.802104   342A      4.828348   343A      4.858614  
     344A      4.874733   345A      4.901472   346A      4.924327  
     347A      4.936775   348A      4.970636   349A      4.993359  
     350A      5.020373   351A      5.043978   352A      5.084293  
     353A      5.095764   354A      5.134960   355A      5.143503  
     356A      5.161245   357A      5.200542   358A      5.223548  
     359A      5.242112   360A      5.293490   361A      5.308385  
     362A      5.373166   363A      5.401145   364A      5.425447  
     365A      5.436228   366A      5.492308   367A      5.512567  
     368A      5.519330   369A      5.542247   370A      5.544141  
     371A      5.568710   372A      5.603542   373A      5.628906  
     374A      5.643306   375A      5.693267   376A      5.713917  
     377A      5.726923   378A      5.752636   379A      5.778950  
     380A      5.790731   381A      5.854903   382A      5.898510  
     383A      5.917355   384A      5.950938   385A      5.973989  
     386A      6.023460   387A      6.055842   388A      6.061430  
     389A      6.080878   390A      6.144476   391A      6.166302  
     392A      6.203736   393A      6.219530   394A      6.327197  
     395A      6.379258   396A      6.455005   397A      6.493035  
     398A      6.584883   399A      6.695396   400A      6.721577  
     401A      6.733173   402A      6.770580   403A      6.806584  
     404A      6.907937   405A      6.946731   406A      7.039425  
     407A      7.310038   408A      7.771781   409A     15.410766  
     410A     16.299729   411A     17.275914   412A     17.421540  
     413A     18.534367   414A     19.540586  

    Final Occupation by Irrep:
              A 
    DOCC [    22 ]

  @DF-RHF Final Energy:  -263.92069335086296

   => Energetics <=

    Nuclear Repulsion Energy =            222.7334487020832228
    One-Electron Energy =                -798.1056065376270681
    Two-Electron Energy =                 311.4514644846808551
    Total Energy =                       -263.9206933508629618

Computation Completed

*** tstop() called on node59.bme.utexas.edu at Mon Nov  9 08:24:26 2020
Module time:
	user time   =      56.90 seconds =       0.95 minutes
	system time =       2.20 seconds =       0.04 minutes
	total time  =          9 seconds =       0.15 minutes
Total time:
	user time   =      56.90 seconds =       0.95 minutes
	system time =       2.20 seconds =       0.04 minutes
	total time  =          9 seconds =       0.15 minutes
   => Loading Basis Set <=

    Name: (AUG-CC-PVTZ AUX)
    Role: RIFIT
    Keyword: DF_BASIS_MP2
    atoms 1-2  entry N          line   206 file /home/xy3866/psi4conda/share/psi4/basis/aug-cc-pvtz-ri.gbs 
    atoms 3-6  entry C          line   148 file /home/xy3866/psi4conda/share/psi4/basis/aug-cc-pvtz-ri.gbs 
    atoms 7-12 entry H          line    30 file /home/xy3866/psi4conda/share/psi4/basis/aug-cc-pvtz-ri.gbs 


*** tstart() called on node59.bme.utexas.edu
*** at Mon Nov  9 08:24:26 2020


  //>>>>>>>>>>>>>>>>>>>>>>>>>>>>>>>>>>>//
  //               DFMP2               //
  //<<<<<<<<<<<<<<<<<<<<<<<<<<<<<<<<<<<//

	 --------------------------------------------------------
	                          DF-MP2                         
	      2nd-Order Density-Fitted Moller-Plesset Theory     
	              RMP2 Wavefunction,   8 Threads             
	                                                         
	        Rob Parrish, Justin Turney, Andy Simmonett,      
	           Ed Hohenstein, and C. David Sherrill          
	 --------------------------------------------------------

   => Auxiliary Basis Set <=

  Basis Set: (AUG-CC-PVTZ AUX)
    Blend: AUG-CC-PVTZ-RI
    Number of shells: 252
    Number of basis function: 912
    Number of Cartesian functions: 1146
    Spherical Harmonics?: true
    Max angular momentum: 4

	 --------------------------------------------------------
	                 NBF =   414, NAUX =   912
	 --------------------------------------------------------
	   CLASS    FOCC     OCC    AOCC    AVIR     VIR    FVIR
	   PAIRS       0      22      22     392     392       0
	 --------------------------------------------------------

  DFHelper Memory: AOs need 1.182 GiB; user supplied 22.352 GiB. Using in-core AOs.


         ------------------------------------------------------------
                                     CPHF                           
                                  Rob Parrish                       
         ------------------------------------------------------------

  ==> Geometry <==

    Molecular point group: c1
    Full point group: C1

    Geometry (in Angstrom), charge = 0, multiplicity = 1:

       Center              X                  Y                   Z               Mass       
    ------------   -----------------  -----------------  -----------------  -----------------
         N            0.105436713385    -1.054939832195     0.043859585440    14.003074004430
         N            1.473707713385     0.699688167805     0.043269585440    14.003074004430
         C           -0.714508286615     0.054514167805     0.043874585440    12.000000000000
         C           -2.202946286615    -0.030970832195     0.043901585440    12.000000000000
         C            0.162409513385     1.120557167805    -0.255906414560    12.000000000000
         C            1.402449713385    -0.622716832195     0.044270585440    12.000000000000
         H           -0.203731286615    -2.019413832195     0.043874585440     1.007825032230
         H           -2.583250286615    -0.549871832195     0.930312585440     1.007825032230
         H           -2.621349286615     0.978155167805     0.043433585440     1.007825032230
         H           -2.583260286615    -0.550701832195    -0.842020414560     1.007825032230
         H           -0.087539286615     2.174002167805     0.044160585440     1.007825032230
         H            2.243065713385    -1.304204832195     0.044411585440     1.007825032230

  Nuclear repulsion =  222.733448702083223
  Reference energy  = -263.920693350862962

  ==> Basis Set <==

  Basis Set: AUG-CC-PVTZ
    Blend: AUG-CC-PVTZ
    Number of shells: 138
    Number of basis function: 414
    Number of Cartesian functions: 480
    Spherical Harmonics?: true
    Max angular momentum: 3

  ==> CGRSolver (by Rob Parrish) <==

   Number of roots    =         1
   Preconditioning    =    JACOBI
   Convergence cutoff =     1E-06
   Maximum iterations =       100

  ==> CPHFRHamiltonian (by Rob Parrish) <== 

  ==> MemDFJK: Density-Fitted J/K Matrices <==

    J tasked:                   Yes
    K tasked:                   Yes
    wK tasked:                   No
    OpenMP threads:               8
    Memory [MiB]:             22888
    Algorithm:                 Core
    Schwarz Cutoff:           1E-12
    Mask sparsity (%):       1.5695
    Fitting Condition:        1E-10

   => Auxiliary Basis Set <=

  Basis Set: (AUG-CC-PVTZ AUX)
    Blend: AUG-CC-PVTZ-JKFIT
    Number of shells: 264
    Number of basis function: 900
    Number of Cartesian functions: 1116
    Spherical Harmonics?: true
    Max angular momentum: 4

  ==> CPHF Iterations <==

  => Iterations <=

             Iter  Converged  Remaining    Residual
  CGR           1          0          1   9.973E-02
  CGR           2          0          1   3.701E-02
  CGR           3          0          1   2.056E-02
  CGR           4          0          1   6.900E-03
  CGR           5          0          1   2.074E-03
  CGR           6          0          1   7.244E-04
  CGR           7          0          1   2.400E-04
  CGR           8          0          1   8.812E-05
  CGR           9          0          1   3.257E-05
  CGR          10          0          1   1.050E-05
  CGR          11          0          1   4.446E-06
  CGR          12          0          1   1.975E-06
  CGR          13          1          0   5.325E-07

    CGRSolver converged.

	-----------------------------------------------------------
	 ==================> DF-MP2 Energies <==================== 
	-----------------------------------------------------------
	 Reference Energy          =    -263.9206933508629618 [Eh]
	 Singles Energy            =      -0.0000000000000000 [Eh]
	 Same-Spin Energy          =      -0.2880777107544336 [Eh]
	 Opposite-Spin Energy      =      -0.9011381897384532 [Eh]
	 Correlation Energy        =      -1.1892159004928868 [Eh]
	 Total Energy              =    -265.1099092513558730 [Eh]
	-----------------------------------------------------------
	 ================> DF-SCS-MP2 Energies <================== 
	-----------------------------------------------------------
	 SCS Same-Spin Scale       =       0.3333333333333333 [-]
	 SCS Opposite-Spin Scale   =       1.2000000000000000 [-]
	 SCS Same-Spin Energy      =      -0.0960259035848112 [Eh]
	 SCS Opposite-Spin Energy  =      -1.0813658276861438 [Eh]
	 SCS Correlation Energy    =      -1.1773917312709550 [Eh]
	 SCS Total Energy          =    -265.0980850821339345 [Eh]
	-----------------------------------------------------------



Properties will be evaluated at  -0.000000,   0.000000,  -0.000000 [a0]

Properties computed using the MP2 density matrix

  Nuclear Dipole Moment: [e a0]
     X:    -5.4757      Y:    -1.1915      Z:     0.2474

  Electronic Dipole Moment: [e a0]
     X:     4.3720      Y:    -0.0702      Z:    -0.1610

  Dipole Moment: [e a0]
     X:    -1.1037      Y:    -1.2617      Z:     0.0864     Total:     1.6785

  Dipole Moment: [D]
     X:    -2.8053      Y:    -3.2069      Z:     0.2197     Total:     4.2664


*** tstop() called on node59.bme.utexas.edu at Mon Nov  9 08:24:51 2020
Module time:
	user time   =     169.23 seconds =       2.82 minutes
	system time =       4.66 seconds =       0.08 minutes
	total time  =         25 seconds =       0.42 minutes
Total time:
	user time   =     227.07 seconds =       3.78 minutes
	system time =       6.92 seconds =       0.12 minutes
	total time  =         34 seconds =       0.57 minutes

    Psi4 stopped on: Monday, 09 November 2020 08:24AM
    Psi4 wall time for execution: 0:00:33.97

*** Psi4 exiting successfully. Buy a developer a beer!
