3352049                                                                 
Freq      RMP2-FC                                                     6-31G(d)            
Number of atoms                            I               16
Info1-9                                    I   N=           9
          28          26        1002           0           0         100
           6           2           1
Charge                                     I                0
Multiplicity                               I                1
Number of electrons                        I               66
Number of alpha electrons                  I               33
Number of beta electrons                   I               33
Number of basis functions                  I              149
Number of independent functions            I              149
Number of point charges in /Mol/           I                0
Number of translation vectors              I                0
Atomic numbers                             I   N=          16
           8           8           7           6           6           6
           6           6           6           1           1           1
           1           1           1           1
Nuclear charges                            R   N=          16
  8.00000000E+00  8.00000000E+00  7.00000000E+00  6.00000000E+00  6.00000000E+00
  6.00000000E+00  6.00000000E+00  6.00000000E+00  6.00000000E+00  1.00000000E+00
  1.00000000E+00  1.00000000E+00  1.00000000E+00  1.00000000E+00  1.00000000E+00
  1.00000000E+00
Current cartesian coordinates              R   N=          48
  1.84350260E+00 -2.03427928E+00  1.95055621E-06 -2.59618447E+00  3.06130509E+00
  9.12748819E-06 -3.21384473E+00 -1.24733752E+00 -6.08834374E-06  9.87284039E-01
  4.13530048E-01 -7.81498362E-06 -1.76434100E+00  8.79814022E-01 -2.90697333E-07
  2.98893962E+00  2.05894109E+00 -6.24382946E-06  5.21168151E+00  5.46999817E-01
 -7.59455330E-07  4.42725463E+00 -1.91598583E+00  8.04132752E-06 -5.95047568E+00
 -1.13173497E+00  1.32174525E-06  2.83535264E+00  4.09578739E+00 -1.69325194E-05
 -2.32915382E+00 -2.94193858E+00 -1.59936915E-05  7.15206054E+00  1.18858097E+00
  8.16796828E-06  5.39168792E+00 -3.71459866E+00  5.13386300E-06 -6.47251029E+00
  8.60112648E-01  1.82299192E-06 -6.73055935E+00 -2.04108637E+00  1.68434544E+00
 -6.73056828E+00 -2.04108631E+00 -1.68433917E+00
Force Field                                I                0
Int Atom Types                             I   N=          16
           0           0           0           0           0           0
           0           0           0           0           0           0
           0           0           0           0
MM charges                                 R   N=          16
  0.00000000E+00  0.00000000E+00  0.00000000E+00  0.00000000E+00  0.00000000E+00
  0.00000000E+00  0.00000000E+00  0.00000000E+00  0.00000000E+00  0.00000000E+00
  0.00000000E+00  0.00000000E+00  0.00000000E+00  0.00000000E+00  0.00000000E+00
  0.00000000E+00
Integer atomic weights                     I   N=          16
          16          16          14          12          12          12
          12          12          12           1           1           1
           1           1           1           1
Real atomic weights                        R   N=          16
  1.59949146E+01  1.59949146E+01  1.40030740E+01  1.20000000E+01  1.20000000E+01
  1.20000000E+01  1.20000000E+01  1.20000000E+01  1.20000000E+01  1.00782504E+00
  1.00782504E+00  1.00782504E+00  1.00782504E+00  1.00782504E+00  1.00782504E+00
  1.00782504E+00
Atom fragment info                         I   N=          16
           0           0           0           0           0           0
           0           0           0           0           0           0
           0           0           0           0
Atom residue num                           I   N=          16
           0           0           0           0           0           0
           0           0           0           0           0           0
           0           0           0           0
Nuclear spins                              I   N=          16
           0           0           2           0           0           0
           0           0           0           1           1           1
           1           1           1           1
Nuclear ZEff                               R   N=          16
 -5.60000000E+00 -5.60000000E+00 -4.55000000E+00 -3.60000000E+00 -3.60000000E+00
 -3.60000000E+00 -3.60000000E+00 -3.60000000E+00 -3.60000000E+00 -1.00000000E+00
 -1.00000000E+00 -1.00000000E+00 -1.00000000E+00 -1.00000000E+00 -1.00000000E+00
 -1.00000000E+00
Nuclear QMom                               R   N=          16
  0.00000000E+00  0.00000000E+00  2.04400000E+00  0.00000000E+00  0.00000000E+00
  0.00000000E+00  0.00000000E+00  0.00000000E+00  0.00000000E+00  0.00000000E+00
  0.00000000E+00  0.00000000E+00  0.00000000E+00  0.00000000E+00  0.00000000E+00
  0.00000000E+00
Nuclear GFac                               R   N=          16
  0.00000000E+00  0.00000000E+00  4.03761000E-01  0.00000000E+00  0.00000000E+00
  0.00000000E+00  0.00000000E+00  0.00000000E+00  0.00000000E+00  2.79284600E+00
  2.79284600E+00  2.79284600E+00  2.79284600E+00  2.79284600E+00  2.79284600E+00
  2.79284600E+00
MicOpt                                     I   N=          16
          -1          -1          -1          -1          -1          -1
          -1          -1          -1          -1          -1          -1
          -1          -1          -1          -1
Number of contracted shells                I               50
Number of primitive shells                 I              127
Pure/Cartesian d shells                    I                1
Pure/Cartesian f shells                    I                0
Highest angular momentum                   I                2
Largest degree of contraction              I                6
Shell types                                I   N=          50
           0          -1          -1           2           0          -1
          -1           2           0          -1          -1           2
           0          -1          -1           2           0          -1
          -1           2           0          -1          -1           2
           0          -1          -1           2           0          -1
          -1           2           0          -1          -1           2
           0           0           0           0           0           0
           0           0           0           0           0           0
           0           0
Number of primitives per shell             I   N=          50
           6           3           1           1           6           3
           1           1           6           3           1           1
           6           3           1           1           6           3
           1           1           6           3           1           1
           6           3           1           1           6           3
           1           1           6           3           1           1
           3           1           3           1           3           1
           3           1           3           1           3           1
           3           1
Shell to atom map                          I   N=          50
           1           1           1           1           2           2
           2           2           3           3           3           3
           4           4           4           4           5           5
           5           5           6           6           6           6
           7           7           7           7           8           8
           8           8           9           9           9           9
          10          10          11          11          12          12
          13          13          14          14          15          15
          16          16
Primitive exponents                        R   N=         127
  5.48467166E+03  8.25234946E+02  1.88046958E+02  5.29645000E+01  1.68975704E+01
  5.79963534E+00  1.55396162E+01  3.59993359E+00  1.01376175E+00  2.70005823E-01
  8.00000000E-01  5.48467166E+03  8.25234946E+02  1.88046958E+02  5.29645000E+01
  1.68975704E+01  5.79963534E+00  1.55396162E+01  3.59993359E+00  1.01376175E+00
  2.70005823E-01  8.00000000E-01  4.17351146E+03  6.27457911E+02  1.42902093E+02
  4.02343293E+01  1.28202129E+01  4.39043701E+00  1.16263619E+01  2.71627981E+00
  7.72218397E-01  2.12031498E-01  8.00000000E-01  3.04752488E+03  4.57369518E+02
  1.03948685E+02  2.92101553E+01  9.28666296E+00  3.16392696E+00  7.86827235E+00
  1.88128854E+00  5.44249258E-01  1.68714478E-01  8.00000000E-01  3.04752488E+03
  4.57369518E+02  1.03948685E+02  2.92101553E+01  9.28666296E+00  3.16392696E+00
  7.86827235E+00  1.88128854E+00  5.44249258E-01  1.68714478E-01  8.00000000E-01
  3.04752488E+03  4.57369518E+02  1.03948685E+02  2.92101553E+01  9.28666296E+00
  3.16392696E+00  7.86827235E+00  1.88128854E+00  5.44249258E-01  1.68714478E-01
  8.00000000E-01  3.04752488E+03  4.57369518E+02  1.03948685E+02  2.92101553E+01
  9.28666296E+00  3.16392696E+00  7.86827235E+00  1.88128854E+00  5.44249258E-01
  1.68714478E-01  8.00000000E-01  3.04752488E+03  4.57369518E+02  1.03948685E+02
  2.92101553E+01  9.28666296E+00  3.16392696E+00  7.86827235E+00  1.88128854E+00
  5.44249258E-01  1.68714478E-01  8.00000000E-01  3.04752488E+03  4.57369518E+02
  1.03948685E+02  2.92101553E+01  9.28666296E+00  3.16392696E+00  7.86827235E+00
  1.88128854E+00  5.44249258E-01  1.68714478E-01  8.00000000E-01  1.87311370E+01
  2.82539436E+00  6.40121692E-01  1.61277759E-01  1.87311370E+01  2.82539436E+00
  6.40121692E-01  1.61277759E-01  1.87311370E+01  2.82539436E+00  6.40121692E-01
  1.61277759E-01  1.87311370E+01  2.82539436E+00  6.40121692E-01  1.61277759E-01
  1.87311370E+01  2.82539436E+00  6.40121692E-01  1.61277759E-01  1.87311370E+01
  2.82539436E+00  6.40121692E-01  1.61277759E-01  1.87311370E+01  2.82539436E+00
  6.40121692E-01  1.61277759E-01
Contraction coefficients                   R   N=         127
  1.83107443E-03  1.39501722E-02  6.84450781E-02  2.32714336E-01  4.70192898E-01
  3.58520853E-01 -1.10777550E-01 -1.48026263E-01  1.13076702E+00  1.00000000E+00
  1.00000000E+00  1.83107443E-03  1.39501722E-02  6.84450781E-02  2.32714336E-01
  4.70192898E-01  3.58520853E-01 -1.10777550E-01 -1.48026263E-01  1.13076702E+00
  1.00000000E+00  1.00000000E+00  1.83477216E-03  1.39946270E-02  6.85865518E-02
  2.32240873E-01  4.69069948E-01  3.60455199E-01 -1.14961182E-01 -1.69117479E-01
  1.14585195E+00  1.00000000E+00  1.00000000E+00  1.83473713E-03  1.40373228E-02
  6.88426223E-02  2.32184443E-01  4.67941348E-01  3.62311985E-01 -1.19332420E-01
 -1.60854152E-01  1.14345644E+00  1.00000000E+00  1.00000000E+00  1.83473713E-03
  1.40373228E-02  6.88426223E-02  2.32184443E-01  4.67941348E-01  3.62311985E-01
 -1.19332420E-01 -1.60854152E-01  1.14345644E+00  1.00000000E+00  1.00000000E+00
  1.83473713E-03  1.40373228E-02  6.88426223E-02  2.32184443E-01  4.67941348E-01
  3.62311985E-01 -1.19332420E-01 -1.60854152E-01  1.14345644E+00  1.00000000E+00
  1.00000000E+00  1.83473713E-03  1.40373228E-02  6.88426223E-02  2.32184443E-01
  4.67941348E-01  3.62311985E-01 -1.19332420E-01 -1.60854152E-01  1.14345644E+00
  1.00000000E+00  1.00000000E+00  1.83473713E-03  1.40373228E-02  6.88426223E-02
  2.32184443E-01  4.67941348E-01  3.62311985E-01 -1.19332420E-01 -1.60854152E-01
  1.14345644E+00  1.00000000E+00  1.00000000E+00  1.83473713E-03  1.40373228E-02
  6.88426223E-02  2.32184443E-01  4.67941348E-01  3.62311985E-01 -1.19332420E-01
 -1.60854152E-01  1.14345644E+00  1.00000000E+00  1.00000000E+00  3.34946043E-02
  2.34726953E-01  8.13757326E-01  1.00000000E+00  3.34946043E-02  2.34726953E-01
  8.13757326E-01  1.00000000E+00  3.34946043E-02  2.34726953E-01  8.13757326E-01
  1.00000000E+00  3.34946043E-02  2.34726953E-01  8.13757326E-01  1.00000000E+00
  3.34946043E-02  2.34726953E-01  8.13757326E-01  1.00000000E+00  3.34946043E-02
  2.34726953E-01  8.13757326E-01  1.00000000E+00  3.34946043E-02  2.34726953E-01
  8.13757326E-01  1.00000000E+00
P(S=P) Contraction coefficients            R   N=         127
  0.00000000E+00  0.00000000E+00  0.00000000E+00  0.00000000E+00  0.00000000E+00
  0.00000000E+00  7.08742682E-02  3.39752839E-01  7.27158577E-01  1.00000000E+00
  0.00000000E+00  0.00000000E+00  0.00000000E+00  0.00000000E+00  0.00000000E+00
  0.00000000E+00  0.00000000E+00  7.08742682E-02  3.39752839E-01  7.27158577E-01
  1.00000000E+00  0.00000000E+00  0.00000000E+00  0.00000000E+00  0.00000000E+00
  0.00000000E+00  0.00000000E+00  0.00000000E+00  6.75797439E-02  3.23907296E-01
  7.40895140E-01  1.00000000E+00  0.00000000E+00  0.00000000E+00  0.00000000E+00
  0.00000000E+00  0.00000000E+00  0.00000000E+00  0.00000000E+00  6.89990666E-02
  3.16423961E-01  7.44308291E-01  1.00000000E+00  0.00000000E+00  0.00000000E+00
  0.00000000E+00  0.00000000E+00  0.00000000E+00  0.00000000E+00  0.00000000E+00
  6.89990666E-02  3.16423961E-01  7.44308291E-01  1.00000000E+00  0.00000000E+00
  0.00000000E+00  0.00000000E+00  0.00000000E+00  0.00000000E+00  0.00000000E+00
  0.00000000E+00  6.89990666E-02  3.16423961E-01  7.44308291E-01  1.00000000E+00
  0.00000000E+00  0.00000000E+00  0.00000000E+00  0.00000000E+00  0.00000000E+00
  0.00000000E+00  0.00000000E+00  6.89990666E-02  3.16423961E-01  7.44308291E-01
  1.00000000E+00  0.00000000E+00  0.00000000E+00  0.00000000E+00  0.00000000E+00
  0.00000000E+00  0.00000000E+00  0.00000000E+00  6.89990666E-02  3.16423961E-01
  7.44308291E-01  1.00000000E+00  0.00000000E+00  0.00000000E+00  0.00000000E+00
  0.00000000E+00  0.00000000E+00  0.00000000E+00  0.00000000E+00  6.89990666E-02
  3.16423961E-01  7.44308291E-01  1.00000000E+00  0.00000000E+00  0.00000000E+00
  0.00000000E+00  0.00000000E+00  0.00000000E+00  0.00000000E+00  0.00000000E+00
  0.00000000E+00  0.00000000E+00  0.00000000E+00  0.00000000E+00  0.00000000E+00
  0.00000000E+00  0.00000000E+00  0.00000000E+00  0.00000000E+00  0.00000000E+00
  0.00000000E+00  0.00000000E+00  0.00000000E+00  0.00000000E+00  0.00000000E+00
  0.00000000E+00  0.00000000E+00  0.00000000E+00  0.00000000E+00  0.00000000E+00
  0.00000000E+00  0.00000000E+00
Coordinates of each shell                  R   N=         150
  1.84350260E+00 -2.03427928E+00  1.95055621E-06  1.84350260E+00 -2.03427928E+00
  1.95055621E-06  1.84350260E+00 -2.03427928E+00  1.95055621E-06  1.84350260E+00
 -2.03427928E+00  1.95055621E-06 -2.59618447E+00  3.06130509E+00  9.12748819E-06
 -2.59618447E+00  3.06130509E+00  9.12748819E-06 -2.59618447E+00  3.06130509E+00
  9.12748819E-06 -2.59618447E+00  3.06130509E+00  9.12748819E-06 -3.21384473E+00
 -1.24733752E+00 -6.08834374E-06 -3.21384473E+00 -1.24733752E+00 -6.08834374E-06
 -3.21384473E+00 -1.24733752E+00 -6.08834374E-06 -3.21384473E+00 -1.24733752E+00
 -6.08834374E-06  9.87284039E-01  4.13530048E-01 -7.81498362E-06  9.87284039E-01
  4.13530048E-01 -7.81498362E-06  9.87284039E-01  4.13530048E-01 -7.81498362E-06
  9.87284039E-01  4.13530048E-01 -7.81498362E-06 -1.76434100E+00  8.79814022E-01
 -2.90697333E-07 -1.76434100E+00  8.79814022E-01 -2.90697333E-07 -1.76434100E+00
  8.79814022E-01 -2.90697333E-07 -1.76434100E+00  8.79814022E-01 -2.90697333E-07
  2.98893962E+00  2.05894109E+00 -6.24382946E-06  2.98893962E+00  2.05894109E+00
 -6.24382946E-06  2.98893962E+00  2.05894109E+00 -6.24382946E-06  2.98893962E+00
  2.05894109E+00 -6.24382946E-06  5.21168151E+00  5.46999817E-01 -7.59455330E-07
  5.21168151E+00  5.46999817E-01 -7.59455330E-07  5.21168151E+00  5.46999817E-01
 -7.59455330E-07  5.21168151E+00  5.46999817E-01 -7.59455330E-07  4.42725463E+00
 -1.91598583E+00  8.04132752E-06  4.42725463E+00 -1.91598583E+00  8.04132752E-06
  4.42725463E+00 -1.91598583E+00  8.04132752E-06  4.42725463E+00 -1.91598583E+00
  8.04132752E-06 -5.95047568E+00 -1.13173497E+00  1.32174525E-06 -5.95047568E+00
 -1.13173497E+00  1.32174525E-06 -5.95047568E+00 -1.13173497E+00  1.32174525E-06
 -5.95047568E+00 -1.13173497E+00  1.32174525E-06  2.83535264E+00  4.09578739E+00
 -1.69325194E-05  2.83535264E+00  4.09578739E+00 -1.69325194E-05 -2.32915382E+00
 -2.94193858E+00 -1.59936915E-05 -2.32915382E+00 -2.94193858E+00 -1.59936915E-05
  7.15206054E+00  1.18858097E+00  8.16796828E-06  7.15206054E+00  1.18858097E+00
  8.16796828E-06  5.39168792E+00 -3.71459866E+00  5.13386300E-06  5.39168792E+00
 -3.71459866E+00  5.13386300E-06 -6.47251029E+00  8.60112648E-01  1.82299192E-06
 -6.47251029E+00  8.60112648E-01  1.82299192E-06 -6.73055935E+00 -2.04108637E+00
  1.68434544E+00 -6.73055935E+00 -2.04108637E+00  1.68434544E+00 -6.73056828E+00
 -2.04108631E+00 -1.68433917E+00 -6.73056828E+00 -2.04108631E+00 -1.68433917E+00
Constraint Structure                       R   N=          48
  1.84350260E+00 -2.03427928E+00  1.95055621E-06 -2.59618447E+00  3.06130509E+00
  9.12748819E-06 -3.21384473E+00 -1.24733752E+00 -6.08834374E-06  9.87284039E-01
  4.13530048E-01 -7.81498362E-06 -1.76434100E+00  8.79814022E-01 -2.90697333E-07
  2.98893962E+00  2.05894109E+00 -6.24382946E-06  5.21168151E+00  5.46999817E-01
 -7.59455330E-07  4.42725463E+00 -1.91598583E+00  8.04132752E-06 -5.95047568E+00
 -1.13173497E+00  1.32174525E-06  2.83535264E+00  4.09578739E+00 -1.69325194E-05
 -2.32915382E+00 -2.94193858E+00 -1.59936915E-05  7.15206054E+00  1.18858097E+00
  8.16796828E-06  5.39168792E+00 -3.71459866E+00  5.13386300E-06 -6.47251029E+00
  8.60112648E-01  1.82299192E-06 -6.73055935E+00 -2.04108637E+00  1.68434544E+00
 -6.73056828E+00 -2.04108631E+00 -1.68433917E+00
Num ILSW                                   I              100
ILSW                                       I   N=         100
           0           1           0           0           2           0
           0           0           0           0           0          -1
           0           0           0           0           0           0
           0           0           0           0           1           0
           1           0           0           0           0           0
           0           0      100000           0          -1           0
           0           0           0           0           0           0
           0           0           0           1           1           0
           0           0           1           0           0           0
           0           0           4          40           0           0
           0           0           0           0           0           0
           0           0           0           0           0           0
           0           0           0           0           0           0
           0           0           0           0           0           0
           0           0           0           0           0           0
           0           0           0           0           0           0
           0           0           0           0
Num RLSW                                   I               40
RLSW                                       R   N=          40
  1.00000000E+00  1.00000000E+00  1.00000000E+00  1.00000000E+00  1.00000000E+00
  0.00000000E+00  0.00000000E+00  1.00000000E+00  0.00000000E+00  0.00000000E+00
  0.00000000E+00  0.00000000E+00  1.00000000E+00  0.00000000E+00  0.00000000E+00
  0.00000000E+00  0.00000000E+00  1.00000000E+00  0.00000000E+00  0.00000000E+00
  0.00000000E+00  0.00000000E+00  1.00000000E+00  0.00000000E+00  0.00000000E+00
  0.00000000E+00  0.00000000E+00  1.00000000E+00  0.00000000E+00  0.00000000E+00
  0.00000000E+00  0.00000000E+00  0.00000000E+00  0.00000000E+00  0.00000000E+00
  0.00000000E+00  0.00000000E+00  0.00000000E+00  1.00000000E+00  1.00000000E+00
MxBond                                     I                4
NBond                                      I   N=          16
           2           1           3           3           3           3
           3           3           4           1           1           1
           1           1           1           1
IBond                                      I   N=          64
           4           8           0           0           5           0
           0           0           5           9          11           0
           1           5           6           0           2           3
           4           0           4           7          10           0
           6           8          12           0           1           7
          13           0           3          14          15          16
           6           0           0           0           3           0
           0           0           7           0           0           0
           8           0           0           0           9           0
           0           0           9           0           0           0
           9           0           0           0
RBond                                      R   N=          64
  1.50000000E+00  1.50000000E+00  0.00000000E+00  0.00000000E+00  2.00000000E+00
  0.00000000E+00  0.00000000E+00  0.00000000E+00  1.00000000E+00  1.00000000E+00
  1.00000000E+00  0.00000000E+00  1.50000000E+00  1.50000000E+00  1.50000000E+00
  0.00000000E+00  2.00000000E+00  1.00000000E+00  1.50000000E+00  0.00000000E+00
  1.50000000E+00  1.50000000E+00  1.00000000E+00  0.00000000E+00  1.50000000E+00
  1.50000000E+00  1.00000000E+00  0.00000000E+00  1.50000000E+00  1.50000000E+00
  1.00000000E+00  0.00000000E+00  1.00000000E+00  1.00000000E+00  1.00000000E+00
  1.00000000E+00  1.00000000E+00  0.00000000E+00  0.00000000E+00  0.00000000E+00
  1.00000000E+00  0.00000000E+00  0.00000000E+00  0.00000000E+00  1.00000000E+00
  0.00000000E+00  0.00000000E+00  0.00000000E+00  1.00000000E+00  0.00000000E+00
  0.00000000E+00  0.00000000E+00  1.00000000E+00  0.00000000E+00  0.00000000E+00
  0.00000000E+00  1.00000000E+00  0.00000000E+00  0.00000000E+00  0.00000000E+00
  1.00000000E+00  0.00000000E+00  0.00000000E+00  0.00000000E+00
Virial Ratio                               R      2.002819456610546E+00
SCF Energy                                 R     -4.354409213030160E+02
MP2 Energy                                 R     -4.367227506990483E+02
Total Energy                               R     -4.367227506990483E+02
Post-SCF wavefunction norm                 R      1.685047332083914E+00
RMS Force                                  R      1.506671236064036E-07
RMS Density                                R      2.379059291365802E-09
External E-field                           R   N=          35
  0.00000000E+00  0.00000000E+00  0.00000000E+00  0.00000000E+00  0.00000000E+00
  0.00000000E+00  0.00000000E+00  0.00000000E+00  0.00000000E+00  0.00000000E+00
  0.00000000E+00  0.00000000E+00  0.00000000E+00  0.00000000E+00  0.00000000E+00
  0.00000000E+00  0.00000000E+00  0.00000000E+00  0.00000000E+00  0.00000000E+00
  0.00000000E+00  0.00000000E+00  0.00000000E+00  0.00000000E+00  0.00000000E+00
  0.00000000E+00  0.00000000E+00  0.00000000E+00  0.00000000E+00  0.00000000E+00
  0.00000000E+00  0.00000000E+00  0.00000000E+00  0.00000000E+00  0.00000000E+00
IOpCl                                      I                0
IROHF                                      I                0
Alpha Orbital Energies                     R   N=         149
 -2.06481392E+01 -2.05190650E+01 -1.55889374E+01 -1.13595993E+01 -1.13117346E+01
 -1.12987357E+01 -1.12576992E+01 -1.12511490E+01 -1.12465400E+01 -1.47117294E+00
 -1.36568913E+00 -1.22610371E+00 -1.09722859E+00 -1.03545232E+00 -9.50690336E-01
 -8.36992485E-01 -8.15725875E-01 -7.70477294E-01 -7.60372519E-01 -6.67605682E-01
 -6.52301398E-01 -6.36687911E-01 -6.14050676E-01 -5.95213136E-01 -5.82870198E-01
 -5.72899856E-01 -5.56767461E-01 -5.39018022E-01 -5.30326883E-01 -4.25067533E-01
 -4.07788360E-01 -3.83845505E-01 -3.25890681E-01  1.08406132E-01  2.09027149E-01
  2.45328038E-01  2.59842981E-01  2.75040885E-01  2.91062870E-01  3.07199240E-01
  3.07798127E-01  3.26027857E-01  3.26766200E-01  3.53006262E-01  3.63991446E-01
  3.89098026E-01  4.54139406E-01  4.99864481E-01  5.34932960E-01  5.63697201E-01
  6.07974114E-01  6.50885773E-01  7.25885604E-01  7.28396817E-01  7.48828191E-01
  7.69040328E-01  7.83522791E-01  7.96399131E-01  8.07131914E-01  8.21969545E-01
  8.35757606E-01  8.43693963E-01  8.57268386E-01  8.85555968E-01  9.04703846E-01
  9.54985279E-01  9.65557225E-01  9.87134183E-01  1.03543869E+00  1.05044006E+00
  1.06929638E+00  1.09131923E+00  1.09652176E+00  1.13478841E+00  1.14329114E+00
  1.15673827E+00  1.16482619E+00  1.18740301E+00  1.21735905E+00  1.23515081E+00
  1.27687643E+00  1.30118617E+00  1.30472026E+00  1.35053248E+00  1.35579726E+00
  1.39040157E+00  1.44850567E+00  1.46950608E+00  1.52168704E+00  1.56424923E+00
  1.60260248E+00  1.63020221E+00  1.65154366E+00  1.65794740E+00  1.67478516E+00
  1.72561861E+00  1.76677348E+00  1.81464718E+00  1.82724705E+00  1.83135593E+00
  1.85822244E+00  2.01717931E+00  2.07289287E+00  2.07704805E+00  2.11001195E+00
  2.16034205E+00  2.16105160E+00  2.20617947E+00  2.24983384E+00  2.28698903E+00
  2.30972399E+00  2.35955686E+00  2.36858502E+00  2.38648863E+00  2.41847743E+00
  2.48081737E+00  2.50519839E+00  2.54338364E+00  2.54556753E+00  2.57552451E+00
  2.60672707E+00  2.64603132E+00  2.64938195E+00  2.65561568E+00  2.69946925E+00
  2.85058115E+00  2.85161131E+00  2.86927861E+00  2.90851025E+00  2.99202296E+00
  3.01067762E+00  3.04484053E+00  3.07691116E+00  3.16776854E+00  3.23975029E+00
  3.29895033E+00  3.32508672E+00  3.34831912E+00  3.58651173E+00  3.64807770E+00
  4.37015692E+00  4.41986665E+00  4.47138358E+00  4.58806254E+00  4.66984655E+00
  4.69431021E+00  4.82987776E+00  5.01349897E+00  5.08267532E+00
Alpha MO coefficients                      R   N=       22201
  9.94655280E-01  2.11747719E-02  7.23148866E-04  1.04736623E-03 -1.65815154E-09
  3.91472952E-03 -5.61822832E-04 -6.68684712E-04  3.89082389E-10 -4.12626865E-03
 -4.08206009E-03 -3.95365843E-03  4.02038266E-05 -9.34643165E-10  6.36537061E-10
  1.06404623E-05  2.14206024E-05  7.77211697E-08 -6.54574352E-06 -1.31691700E-10
 -1.05150000E-04 -3.50994071E-06  4.03280997E-05  4.59919482E-10  5.99623890E-06
  1.68816747E-05  5.72639422E-06  8.95764458E-06  7.01798772E-11  3.06196772E-11
 -5.71568930E-06 -5.98515714E-06  2.86547795E-05  2.53818518E-05  4.28429685E-10
  1.18025707E-04 -2.20078199E-04 -3.52658482E-04 -2.30315565E-09 -1.30065718E-05
 -4.16331880E-05 -5.27048168E-06 -2.75286427E-05 -2.96453339E-10 -4.94839978E-11
 -1.14969270E-06  3.45461059E-04  1.17841531E-04 -3.47455792E-04  1.51699799E-09
 -1.04898595E-04  3.61066848E-04  2.66570311E-04 -7.88110553E-10 -5.50773736E-06
 -1.43751933E-05 -4.98250302E-05  7.07706445E-06  1.83946792E-10 -7.18388667E-11
  2.23432088E-06  1.97417936E-05 -1.46623027E-05 -2.26401091E-05  9.44786955E-11
  5.51643996E-04 -6.64150982E-05 -1.41839144E-04 -1.00526229E-09 -7.16380713E-06
  1.25507856E-05 -6.68075583E-06  5.49823344E-05 -1.82881392E-10  7.15368036E-11
 -1.93804208E-06  4.76843119E-06  3.72975596E-05  5.76848048E-05 -1.14917439E-10
 -2.20411663E-04  5.93093359E-05 -8.55620517E-06  7.96362892E-10 -1.50431963E-05
 -4.58636643E-05 -2.53994123E-05 -2.87094173E-05  9.51843918E-11 -3.67811074E-12
  5.65897319E-06  4.13690472E-05  4.31891803E-05  5.40860853E-05 -1.13857378E-10
 -7.38410070E-04  1.64465941E-04  3.45883550E-04 -1.68353278E-09 -1.30441028E-05
 -4.62064385E-05 -9.11083949E-06 -3.90953777E-05  2.06738970E-10  1.34340002E-10
 -3.54451404E-06  3.24216305E-04 -4.01770789E-04 -3.10937947E-05 -1.00513493E-09
  4.26395227E-04  1.41529824E-04  7.29161285E-04 -1.17161576E-09 -5.22578222E-06
  3.28628834E-06 -5.40179326E-05  1.89617868E-05  7.44301421E-11 -5.08030109E-10
  2.02598079E-06  1.72518385E-05 -2.39968063E-05  1.71240193E-05 -5.30978926E-11
 -2.15002776E-04 -6.32476793E-05  2.83278544E-05  1.61797194E-09 -9.21547394E-06
  9.74851035E-07  2.14199526E-07  1.73528041E-05  1.53303318E-10 -1.41993879E-10
  1.72393196E-05  2.08458801E-05  3.22926485E-05 -4.40040513E-04  1.53022418E-05
 -4.51834810E-05  3.19713061E-05  1.89623908E-04  8.39219100E-06  1.24140328E-05
  5.35005179E-06  2.86282931E-05  5.35025398E-06  2.86296245E-05 -9.05456339E-06
 -4.21598557E-06 -8.92819602E-06  6.08179214E-06  3.84178578E-11  7.76248626E-05
  8.67313134E-06  4.87062723E-05 -6.49425974E-10 -2.07686522E-05  2.46984495E-05
 -1.78448541E-06  8.10816676E-06  6.63520280E-12 -2.42526818E-10  9.94690313E-01
  2.09661625E-02  5.30953622E-04 -1.44979256E-03 -6.57054144E-09  4.50290092E-03
 -3.85941553E-05  6.97123038E-05  4.00192034E-10 -3.87617290E-03 -3.70506531E-03
 -4.09616262E-03 -9.58659773E-05 -6.73529330E-10  2.07939379E-09 -2.10146179E-06
 -1.74454387E-05  1.31721574E-05 -2.36284560E-05 -1.43012156E-10 -6.14266725E-05
 -5.09048980E-05  1.26192665E-05  3.77587631E-10  9.79216534E-05 -6.78661550E-05
 -3.55001958E-05  5.24131106E-05 -8.94839867E-11 -2.35951879E-10 -7.10336787E-07
  5.70852225E-08  2.84902554E-05 -1.80648809E-05 -1.74905217E-10 -6.94432457E-05
  6.01670460E-05  1.96030256E-04  8.38548787E-11  4.82318754E-06 -2.54007636E-05
 -2.02576210E-05  8.77091089E-05  1.08071676E-10 -1.25851221E-10 -2.85490403E-06
  5.23264840E-04  1.39241402E-06  1.55825017E-06  7.42574343E-11 -3.08327787E-04
  2.20809395E-04 -5.33206796E-04 -2.35785017E-09 -1.23321949E-04 -6.84361715E-04
 -4.92293340E-05  2.65377906E-04  1.08127379E-09 -3.09768054E-09 -2.56403838E-06
 -1.06739782E-05  3.94105746E-06  1.50914986E-05  1.17751985E-10  5.44867529E-05
  1.90866259E-04 -4.00183171E-05 -5.14661209E-11 -9.04642037E-06 -1.53031755E-05
 -8.48566598E-07 -2.92529973E-05  9.51565685E-13  4.26724550E-11  2.45907864E-06
  1.42405122E-05  4.45767701E-06 -1.67316271E-06 -3.44395497E-12 -1.79127805E-04
  8.57882882E-05 -7.16969429E-05  3.29719791E-10 -4.07645919E-06 -4.10122319E-07
  5.79080191E-06  7.64690438E-06 -4.80057928E-11  4.41604673E-11 -1.35735874E-06