opt=Tight                                                               
Freq      RMP2-FC                                                     6-31G(d)            
Number of atoms                            I               14
Info1-9                                    I   N=           9
          23          23        1002           0           0         100
           6           2           1
Charge                                     I                1
Multiplicity                               I                1
Number of electrons                        I               34
Number of alpha electrons                  I               17
Number of beta electrons                   I               17
Number of basis functions                  I               80
Number of independent functions            I               80
Number of point charges in /Mol/           I                0
Number of translation vectors              I                0
Atomic numbers                             I   N=          14
           7           6           6           6           1           1
           1           1           1           1           1           1
           1           1
Nuclear charges                            R   N=          14
  7.00000000E+00  6.00000000E+00  6.00000000E+00  6.00000000E+00  1.00000000E+00
  1.00000000E+00  1.00000000E+00  1.00000000E+00  1.00000000E+00  1.00000000E+00
  1.00000000E+00  1.00000000E+00  1.00000000E+00  1.00000000E+00
Current cartesian coordinates              R   N=          42
 -3.80085193E-07  5.42101086E-20 -6.48786642E-01  2.16738273E+00 -1.62159185E+00
  1.97118887E-01 -2.48803118E+00 -1.06621233E+00  1.97118813E-01  3.20648685E-01
  2.68780399E+00  1.97118853E-01  2.56485411E-07 -4.54292159E-08 -2.59246254E+00
  2.18870364E+00 -1.63753212E+00  2.25648831E+00  1.89417760E+00 -3.52831869E+00
 -5.30598147E-01  3.91947968E+00 -8.21353378E-01 -5.30613872E-01 -2.51249743E+00
 -1.07670338E+00  2.25648833E+00 -4.00270215E+00  1.23752600E-01 -5.30600628E-01
 -2.67105222E+00 -2.98369322E+00 -5.30610851E-01  2.10852246E+00  3.40456631E+00
 -5.30603302E-01 -1.24842939E+00  3.80504506E+00 -5.30608419E-01  3.23798823E-01
  2.71423799E+00  2.25648831E+00
Force Field                                I                0
Int Atom Types                             I   N=          14
           0           0           0           0           0           0
           0           0           0           0           0           0
           0           0
MM charges                                 R   N=          14
  0.00000000E+00  0.00000000E+00  0.00000000E+00  0.00000000E+00  0.00000000E+00
  0.00000000E+00  0.00000000E+00  0.00000000E+00  0.00000000E+00  0.00000000E+00
  0.00000000E+00  0.00000000E+00  0.00000000E+00  0.00000000E+00
Integer atomic weights                     I   N=          14
          14          12          12          12           1           1
           1           1           1           1           1           1
           1           1
Real atomic weights                        R   N=          14
  1.40030740E+01  1.20000000E+01  1.20000000E+01  1.20000000E+01  1.00782504E+00
  1.00782504E+00  1.00782504E+00  1.00782504E+00  1.00782504E+00  1.00782504E+00
  1.00782504E+00  1.00782504E+00  1.00782504E+00  1.00782504E+00
Atom fragment info                         I   N=          14
           0           0           0           0           0           0
           0           0           0           0           0           0
           0           0
Atom residue num                           I   N=          14
           0           0           0           0           0           0
           0           0           0           0           0           0
           0           0
Nuclear spins                              I   N=          14
           2           0           0           0           1           1
           1           1           1           1           1           1
           1           1
Nuclear ZEff                               R   N=          14
 -4.55000000E+00 -3.60000000E+00 -3.60000000E+00 -3.60000000E+00 -1.00000000E+00
 -1.00000000E+00 -1.00000000E+00 -1.00000000E+00 -1.00000000E+00 -1.00000000E+00
 -1.00000000E+00 -1.00000000E+00 -1.00000000E+00 -1.00000000E+00
Nuclear QMom                               R   N=          14
  2.04400000E+00  0.00000000E+00  0.00000000E+00  0.00000000E+00  0.00000000E+00
  0.00000000E+00  0.00000000E+00  0.00000000E+00  0.00000000E+00  0.00000000E+00
  0.00000000E+00  0.00000000E+00  0.00000000E+00  0.00000000E+00
Nuclear GFac                               R   N=          14
  4.03761000E-01  0.00000000E+00  0.00000000E+00  0.00000000E+00  2.79284600E+00
  2.79284600E+00  2.79284600E+00  2.79284600E+00  2.79284600E+00  2.79284600E+00
  2.79284600E+00  2.79284600E+00  2.79284600E+00  2.79284600E+00
MicOpt                                     I   N=          14
          -1          -1          -1          -1          -1          -1
          -1          -1          -1          -1          -1          -1
          -1          -1
Number of contracted shells                I               36
Number of primitive shells                 I               84
Pure/Cartesian d shells                    I                1
Pure/Cartesian f shells                    I                0
Highest angular momentum                   I                2
Largest degree of contraction              I                6
Shell types                                I   N=          36
           0          -1          -1           2           0          -1
          -1           2           0          -1          -1           2
           0          -1          -1           2           0           0
           0           0           0           0           0           0
           0           0           0           0           0           0
           0           0           0           0           0           0
Number of primitives per shell             I   N=          36
           6           3           1           1           6           3
           1           1           6           3           1           1
           6           3           1           1           3           1
           3           1           3           1           3           1
           3           1           3           1           3           1
           3           1           3           1           3           1
Shell to atom map                          I   N=          36
           1           1           1           1           2           2
           2           2           3           3           3           3
           4           4           4           4           5           5
           6           6           7           7           8           8
           9           9          10          10          11          11
          12          12          13          13          14          14
Primitive exponents                        R   N=          84
  4.17351146E+03  6.27457911E+02  1.42902093E+02  4.02343293E+01  1.28202129E+01
  4.39043701E+00  1.16263619E+01  2.71627981E+00  7.72218397E-01  2.12031498E-01
  8.00000000E-01  3.04752488E+03  4.57369518E+02  1.03948685E+02  2.92101553E+01
  9.28666296E+00  3.16392696E+00  7.86827235E+00  1.88128854E+00  5.44249258E-01
  1.68714478E-01  8.00000000E-01  3.04752488E+03  4.57369518E+02  1.03948685E+02
  2.92101553E+01  9.28666296E+00  3.16392696E+00  7.86827235E+00  1.88128854E+00
  5.44249258E-01  1.68714478E-01  8.00000000E-01  3.04752488E+03  4.57369518E+02
  1.03948685E+02  2.92101553E+01  9.28666296E+00  3.16392696E+00  7.86827235E+00
  1.88128854E+00  5.44249258E-01  1.68714478E-01  8.00000000E-01  1.87311370E+01
  2.82539436E+00  6.40121692E-01  1.61277759E-01  1.87311370E+01  2.82539436E+00
  6.40121692E-01  1.61277759E-01  1.87311370E+01  2.82539436E+00  6.40121692E-01
  1.61277759E-01  1.87311370E+01  2.82539436E+00  6.40121692E-01  1.61277759E-01
  1.87311370E+01  2.82539436E+00  6.40121692E-01  1.61277759E-01  1.87311370E+01
  2.82539436E+00  6.40121692E-01  1.61277759E-01  1.87311370E+01  2.82539436E+00
  6.40121692E-01  1.61277759E-01  1.87311370E+01  2.82539436E+00  6.40121692E-01
  1.61277759E-01  1.87311370E+01  2.82539436E+00  6.40121692E-01  1.61277759E-01
  1.87311370E+01  2.82539436E+00  6.40121692E-01  1.61277759E-01
Contraction coefficients                   R   N=          84
  1.83477216E-03  1.39946270E-02  6.85865518E-02  2.32240873E-01  4.69069948E-01
  3.60455199E-01 -1.14961182E-01 -1.69117479E-01  1.14585195E+00  1.00000000E+00
  1.00000000E+00  1.83473713E-03  1.40373228E-02  6.88426223E-02  2.32184443E-01
  4.67941348E-01  3.62311985E-01 -1.19332420E-01 -1.60854152E-01  1.14345644E+00
  1.00000000E+00  1.00000000E+00  1.83473713E-03  1.40373228E-02  6.88426223E-02
  2.32184443E-01  4.67941348E-01  3.62311985E-01 -1.19332420E-01 -1.60854152E-01
  1.14345644E+00  1.00000000E+00  1.00000000E+00  1.83473713E-03  1.40373228E-02
  6.88426223E-02  2.32184443E-01  4.67941348E-01  3.62311985E-01 -1.19332420E-01
 -1.60854152E-01  1.14345644E+00  1.00000000E+00  1.00000000E+00  3.34946043E-02
  2.34726953E-01  8.13757326E-01  1.00000000E+00  3.34946043E-02  2.34726953E-01
  8.13757326E-01  1.00000000E+00  3.34946043E-02  2.34726953E-01  8.13757326E-01
  1.00000000E+00  3.34946043E-02  2.34726953E-01  8.13757326E-01  1.00000000E+00
  3.34946043E-02  2.34726953E-01  8.13757326E-01  1.00000000E+00  3.34946043E-02
  2.34726953E-01  8.13757326E-01  1.00000000E+00  3.34946043E-02  2.34726953E-01
  8.13757326E-01  1.00000000E+00  3.34946043E-02  2.34726953E-01  8.13757326E-01
  1.00000000E+00  3.34946043E-02  2.34726953E-01  8.13757326E-01  1.00000000E+00
  3.34946043E-02  2.34726953E-01  8.13757326E-01  1.00000000E+00
P(S=P) Contraction coefficients            R   N=          84
  0.00000000E+00  0.00000000E+00  0.00000000E+00  0.00000000E+00  0.00000000E+00
  0.00000000E+00  6.75797439E-02  3.23907296E-01  7.40895140E-01  1.00000000E+00
  0.00000000E+00  0.00000000E+00  0.00000000E+00  0.00000000E+00  0.00000000E+00
  0.00000000E+00  0.00000000E+00  6.89990666E-02  3.16423961E-01  7.44308291E-01
  1.00000000E+00  0.00000000E+00  0.00000000E+00  0.00000000E+00  0.00000000E+00
  0.00000000E+00  0.00000000E+00  0.00000000E+00  6.89990666E-02  3.16423961E-01
  7.44308291E-01  1.00000000E+00  0.00000000E+00  0.00000000E+00  0.00000000E+00
  0.00000000E+00  0.00000000E+00  0.00000000E+00  0.00000000E+00  6.89990666E-02
  3.16423961E-01  7.44308291E-01  1.00000000E+00  0.00000000E+00  0.00000000E+00
  0.00000000E+00  0.00000000E+00  0.00000000E+00  0.00000000E+00  0.00000000E+00
  0.00000000E+00  0.00000000E+00  0.00000000E+00  0.00000000E+00  0.00000000E+00
  0.00000000E+00  0.00000000E+00  0.00000000E+00  0.00000000E+00  0.00000000E+00
  0.00000000E+00  0.00000000E+00  0.00000000E+00  0.00000000E+00  0.00000000E+00
  0.00000000E+00  0.00000000E+00  0.00000000E+00  0.00000000E+00  0.00000000E+00
  0.00000000E+00  0.00000000E+00  0.00000000E+00  0.00000000E+00  0.00000000E+00
  0.00000000E+00  0.00000000E+00  0.00000000E+00  0.00000000E+00  0.00000000E+00
  0.00000000E+00  0.00000000E+00  0.00000000E+00  0.00000000E+00
Coordinates of each shell                  R   N=         108
 -3.80085193E-07  2.71050543E-20 -6.48786642E-01 -3.80085193E-07  2.71050543E-20
 -6.48786642E-01 -3.80085193E-07  2.71050543E-20 -6.48786642E-01 -3.80085193E-07
  2.71050543E-20 -6.48786642E-01  2.16738273E+00 -1.62159185E+00  1.97118887E-01
  2.16738273E+00 -1.62159185E+00  1.97118887E-01  2.16738273E+00 -1.62159185E+00
  1.97118887E-01  2.16738273E+00 -1.62159185E+00  1.97118887E-01 -2.48803118E+00
 -1.06621233E+00  1.97118813E-01 -2.48803118E+00 -1.06621233E+00  1.97118813E-01
 -2.48803118E+00 -1.06621233E+00  1.97118813E-01 -2.48803118E+00 -1.06621233E+00
  1.97118813E-01  3.20648685E-01  2.68780399E+00  1.97118853E-01  3.20648685E-01
  2.68780399E+00  1.97118853E-01  3.20648685E-01  2.68780399E+00  1.97118853E-01
  3.20648685E-01  2.68780399E+00  1.97118853E-01  2.56485411E-07 -4.54292159E-08
 -2.59246254E+00  2.56485411E-07 -4.54292159E-08 -2.59246254E+00  2.18870364E+00
 -1.63753212E+00  2.25648831E+00  2.18870364E+00 -1.63753212E+00  2.25648831E+00
  1.89417760E+00 -3.52831869E+00 -5.30598147E-01  1.89417760E+00 -3.52831869E+00
 -5.30598147E-01  3.91947968E+00 -8.21353378E-01 -5.30613872E-01  3.91947968E+00
 -8.21353378E-01 -5.30613872E-01 -2.51249743E+00 -1.07670338E+00  2.25648833E+00
 -2.51249743E+00 -1.07670338E+00  2.25648833E+00 -4.00270215E+00  1.23752600E-01
 -5.30600628E-01 -4.00270215E+00  1.23752600E-01 -5.30600628E-01 -2.67105222E+00
 -2.98369322E+00 -5.30610851E-01 -2.67105222E+00 -2.98369322E+00 -5.30610851E-01
  2.10852246E+00  3.40456631E+00 -5.30603302E-01  2.10852246E+00  3.40456631E+00
 -5.30603302E-01 -1.24842939E+00  3.80504506E+00 -5.30608419E-01 -1.24842939E+00
  3.80504506E+00 -5.30608419E-01  3.23798823E-01  2.71423799E+00  2.25648831E+00
  3.23798823E-01  2.71423799E+00  2.25648831E+00
Constraint Structure                       R   N=          42
 -3.80085193E-07  2.71050543E-20 -6.48786642E-01  2.16738273E+00 -1.62159185E+00
  1.97118887E-01 -2.48803118E+00 -1.06621233E+00  1.97118813E-01  3.20648685E-01
  2.68780399E+00  1.97118853E-01  2.56485411E-07 -4.54292159E-08 -2.59246254E+00
  2.18870364E+00 -1.63753212E+00  2.25648831E+00  1.89417760E+00 -3.52831869E+00
 -5.30598147E-01  3.91947968E+00 -8.21353378E-01 -5.30613872E-01 -2.51249743E+00
 -1.07670338E+00  2.25648833E+00 -4.00270215E+00  1.23752600E-01 -5.30600628E-01
 -2.67105222E+00 -2.98369322E+00 -5.30610851E-01  2.10852246E+00  3.40456631E+00
 -5.30603302E-01 -1.24842939E+00  3.80504506E+00 -5.30608419E-01  3.23798823E-01
  2.71423799E+00  2.25648831E+00
Num ILSW                                   I              100
ILSW                                       I   N=         100
           0           1           0           0           2           0
           0           0           0           0           0          -1
           0           0           0           0           0           0
           0           0           0           0           1           0
           1           0           0           0           0           0
           0           0      100000           0          -1           0
           0           0           0           0           0           0
           0           0           0           1           1           0
           0           0           1           0           0           0
           0           0           4          40           0           0
           0           0           0           0           0           0
           0           0           0           0           0           0
           0           0           0           0           0           0
           0           0           0           0           0           0
           0           0           0           0           0           0
           0           0           0           0           0           0
           0           0           0           0
Num RLSW                                   I               40
RLSW                                       R   N=          40
  1.00000000E+00  1.00000000E+00  1.00000000E+00  1.00000000E+00  1.00000000E+00
  0.00000000E+00  0.00000000E+00  1.00000000E+00  0.00000000E+00  0.00000000E+00
  0.00000000E+00  0.00000000E+00  1.00000000E+00  0.00000000E+00  0.00000000E+00
  0.00000000E+00  0.00000000E+00  1.00000000E+00  0.00000000E+00  0.00000000E+00
  0.00000000E+00  0.00000000E+00  1.00000000E+00  0.00000000E+00  0.00000000E+00
  0.00000000E+00  0.00000000E+00  1.00000000E+00  0.00000000E+00  0.00000000E+00
  0.00000000E+00  0.00000000E+00  0.00000000E+00  0.00000000E+00  0.00000000E+00
  0.00000000E+00  0.00000000E+00  0.00000000E+00  1.00000000E+00  1.00000000E+00
MxBond                                     I                4
NBond                                      I   N=          14
           4           4           4           4           1           1
           1           1           1           1           1           1
           1           1
IBond                                      I   N=          56
           2           3           4           5           1           6
           7           8           1           9          10          11
           1          12          13          14           1           0
           0           0           2           0           0           0
           2           0           0           0           2           0
           0           0           3           0           0           0
           3           0           0           0           3           0
           0           0           4           0           0           0
           4           0           0           0           4           0
           0           0
RBond                                      R   N=          56
  1.00000000E+00  1.00000000E+00  1.00000000E+00  1.00000000E+00  1.00000000E+00
  1.00000000E+00  1.00000000E+00  1.00000000E+00  1.00000000E+00  1.00000000E+00
  1.00000000E+00  1.00000000E+00  1.00000000E+00  1.00000000E+00  1.00000000E+00
  1.00000000E+00  1.00000000E+00  0.00000000E+00  0.00000000E+00  0.00000000E+00
  1.00000000E+00  0.00000000E+00  0.00000000E+00  0.00000000E+00  1.00000000E+00
  0.00000000E+00  0.00000000E+00  0.00000000E+00  1.00000000E+00  0.00000000E+00
  0.00000000E+00  0.00000000E+00  1.00000000E+00  0.00000000E+00  0.00000000E+00
  0.00000000E+00  1.00000000E+00  0.00000000E+00  0.00000000E+00  0.00000000E+00
  1.00000000E+00  0.00000000E+00  0.00000000E+00  0.00000000E+00  1.00000000E+00
  0.00000000E+00  0.00000000E+00  0.00000000E+00  1.00000000E+00  0.00000000E+00
  0.00000000E+00  0.00000000E+00  1.00000000E+00  0.00000000E+00  0.00000000E+00
  0.00000000E+00
Virial Ratio                               R      2.001997031479027E+00
SCF Energy                                 R     -1.736498436582842E+02
MP2 Energy                                 R     -1.742056644166107E+02
Total Energy                               R     -1.742056644166107E+02
Post-SCF wavefunction norm                 R      1.533992323271671E+00
RMS Force                                  R      2.771595199750290E-07
RMS Density                                R      2.542575632918038E-10
External E-field                           R   N=          35
  0.00000000E+00  0.00000000E+00  0.00000000E+00  0.00000000E+00  0.00000000E+00
  0.00000000E+00  0.00000000E+00  0.00000000E+00  0.00000000E+00  0.00000000E+00
  0.00000000E+00  0.00000000E+00  0.00000000E+00  0.00000000E+00  0.00000000E+00
  0.00000000E+00  0.00000000E+00  0.00000000E+00  0.00000000E+00  0.00000000E+00
  0.00000000E+00  0.00000000E+00  0.00000000E+00  0.00000000E+00  0.00000000E+00
  0.00000000E+00  0.00000000E+00  0.00000000E+00  0.00000000E+00  0.00000000E+00
  0.00000000E+00  0.00000000E+00  0.00000000E+00  0.00000000E+00  0.00000000E+00
IOpCl                                      I                0
IROHF                                      I                0
Alpha Orbital Energies                     R   N=          80
 -1.58889183E+01 -1.14677093E+01 -1.14677093E+01 -1.14676847E+01 -1.51693084E+00
 -1.18398436E+00 -1.18398430E+00 -1.08866070E+00 -9.38512716E-01 -8.64258656E-01
 -8.64258641E-01 -7.74727206E-01 -7.74727182E-01 -7.44044704E-01 -7.43388670E-01
 -7.38315806E-01 -7.38315723E-01 -5.10117965E-03  6.69430914E-02  8.66223279E-02
  1.00328487E-01  1.00328509E-01  1.13421067E-01  1.13421109E-01  1.17854257E-01
  1.57358039E-01  1.57358084E-01  1.77174659E-01  1.77174767E-01  1.96336676E-01
  4.94777200E-01  4.94777243E-01  5.08905916E-01  5.31134999E-01  5.31135114E-01
  6.30360940E-01  7.20778522E-01  7.20778638E-01  7.91220203E-01  8.34092518E-01
  8.34092642E-01  8.70978451E-01  9.24681974E-01  9.54004276E-01  9.71259433E-01
  9.71259535E-01  9.74858545E-01  9.96321949E-01  1.01832608E+00  1.01832610E+00
  1.04933934E+00  1.04933939E+00  1.05387036E+00  1.42365449E+00  1.42365455E+00
  1.48107268E+00  1.48107295E+00  1.80428083E+00  1.81849967E+00  1.93758776E+00
  1.93758792E+00  2.04296787E+00  2.04296829E+00  2.17169806E+00  2.19390529E+00
  2.19390543E+00  2.22497297E+00  2.34154128E+00  2.34154139E+00  2.35237718E+00
  2.37463537E+00  2.61481317E+00  2.61481330E+00  2.62611876E+00  2.82415494E+00
  2.82415503E+00  4.17712727E+00  4.46342108E+00  4.46342110E+00  4.54608141E+00
Alpha MO coefficients                      R   N=        6400
  9.95088882E-01  2.51700142E-02  9.06667344E-11  2.64242191E-10 -1.02629221E-04
 -3.84852146E-03 -3.01509290E-10 -2.26388494E-10 -2.55230860E-04 -3.27269578E-03
 -3.27269575E-03 -3.17095800E-03  1.56597775E-10 -9.09053952E-11  3.75774571E-11
 -1.04087363E-05  1.15486347E-04 -2.51766243E-04  1.88366507E-04 -8.28673325E-05
  1.27814330E-03 -3.29707580E-04  2.46679551E-04 -1.45614888E-04 -3.63288512E-05
 -4.97596741E-05 -6.01313861E-05 -2.63573269E-05  2.54479141E-07 -1.90396201E-07
 -1.04086885E-05  1.15486619E-04  2.89013200E-04  1.23852628E-04 -8.28673112E-05
  1.27814361E-03  3.78484637E-04  1.62195263E-04 -1.45614848E-04 -2.66343037E-05
 -5.94546045E-05 -6.01314445E-05  1.98938936E-05 -2.92004951E-07 -1.25156408E-07
 -1.04086807E-05  1.15486700E-04 -3.72471011E-05 -3.12219141E-04 -8.28673132E-05
  1.27814365E-03 -4.87774940E-05 -4.08874868E-04 -1.45615020E-04 -6.61699456E-05
 -1.99189398E-05 -6.01314130E-05  6.46321261E-06  3.76374470E-08  3.15454704E-07
  3.81359335E-04  4.16635116E-04 -7.56071092E-05 -1.05904155E-04 -7.52142703E-05
 -1.47193985E-04 -7.52143192E-05 -1.47192880E-04 -7.56070759E-05 -1.05904320E-04
 -7.52143258E-05 -1.47193866E-04 -7.52143358E-05 -1.47192868E-04 -7.52142835E-05
 -1.47193797E-04 -7.52143620E-05 -1.47193066E-04 -7.56071082E-05 -1.05904098E-04
 -1.52306019E-07  4.95253550E-07  1.09436029E-04 -8.55711717E-05  7.97658469E-08
  9.82060473E-07  6.01975700E-04 -4.70698438E-04 -3.89367461E-07 -9.52925842E-05
  9.46112432E-05  3.82470260E-08  3.45349116E-04 -2.22392067E-04  1.73894376E-04
  8.13306902E-01  2.33113550E-02 -6.98563802E-04  5.26279964E-04 -1.30834810E-04
 -1.22090393E-02  9.56189169E-04 -7.46025950E-04 -5.24782773E-04 -1.43081299E-03
 -1.38233590E-03 -1.33134731E-03  1.03294621E-04 -2.58551030E-05  1.96997563E-05
 -3.91070819E-01 -1.12096936E-02 -4.33726815E-04 -5.57380363E-05  6.28122320E-05
  5.87309600E-03  9.34590196E-04 -6.97752036E-04  2.53118098E-04  7.66551424E-04
  5.86037787E-04  6.39995123E-04 -2.80759106E-05 -1.89571194E-05  4.65920906E-06
 -4.21049054E-01 -1.20689592E-02 -6.22381504E-05  4.63493545E-04  6.76316222E-05
  6.32318005E-03  9.03517456E-04 -7.41165695E-04  2.72487472E-04  6.62577432E-04
  7.93702004E-04  6.89063156E-04 -7.68740434E-05 -9.39542678E-06  1.80266410E-05
 -1.45949305E-07  2.33637782E-07  2.85049210E-04  2.52522729E-03  1.37133666E-04
  1.82519970E-03  1.41674550E-04  1.84747789E-03 -1.37311049E-04 -1.21500189E-03
  2.64085711E-05 -4.24386740E-04 -1.60605730E-04 -1.34151401E-03 -1.63475759E-04
 -1.39805910E-03  1.89974794E-05 -5.03209147E-04 -1.47822615E-04 -1.30810755E-03
  9.76907551E-09 -3.21045136E-08 -8.55710852E-05 -1.09435838E-04 -5.02688732E-09
 -6.18774809E-08 -4.70698075E-04 -6.01975469E-04  2.42301486E-08 -2.99059411E-04
  2.99103147E-04 -2.50619232E-09 -1.09641025E-04  1.73894513E-04  2.22392213E-04
 -1.73334238E-02 -4.96798927E-04  9.66579132E-05  9.80783673E-05  2.79064397E-06
  2.60128805E-04 -7.10478724E-04 -9.06528997E-04  1.11666307E-05  1.20404295E-04
 -6.04467690E-05  2.83783110E-05  2.83454827E-05  8.58511741E-06  1.03158673E-05
  7.12630398E-01  2.04261363E-02  6.78556021E-04  3.62266870E-04 -1.14576212E-04
 -1.06993094E-02 -7.58811631E-04 -9.28456996E-04 -4.60322165E-04 -1.25580232E-03
 -1.20906188E-03 -1.16643590E-03 -1.03857304E-04  2.36121244E-05  1.71411593E-05
 -6.95373481E-01 -1.99314449E-02  1.58821832E-04  7.34184165E-04  1.11810571E-04
  1.04400027E-02 -7.15650907E-04 -9.59313105E-04  4.49104902E-04  1.13697001E-03
  1.26821274E-03  1.13820464E-03  7.60387388E-05  1.01888788E-05  2.67504887E-05
  9.14460591E-09 -1.56788715E-08 -6.06694633E-06 -5.37991549E-05 -1.09631278E-04
 -5.62209220E-04  1.03692700E-04  4.83935822E-04  2.49920785E-04  2.21313050E-03
  1.73555594E-04  1.86089201E-03  7.08259638E-05  1.35711074E-03 -6.39285617E-05
 -1.29885925E-03 -1.74523338E-04 -1.84122400E-03 -2.43848048E-04 -2.15946891E-03
 -2.21462441E-04  7.19622666E-04 -7.88112715E-08  5.39821044E-08  1.15908292E-04
  1.42710216E-03 -4.35897876E-07  2.96214603E-07 -5.67201595E-04 -4.95154352E-04
 -4.95258447E-04  5.56329461E-05 -2.42777764E-07  1.60712939E-07 -1.09992546E-07
  5.74277642E-01  1.58209582E-02 -4.42171448E-04  3.30828968E-04 -1.89344265E-04
 -6.17230588E-03 -2.24079931E-04  1.67609637E-04  3.99493155E-04 -1.02911485E-03
 -1.04150046E-03 -1.10784109E-03 -2.42956251E-05 -4.93240009E-05  3.69041952E-05
  5.75139032E-01  1.58456490E-02  5.08473399E-04  2.17813054E-04 -1.89482672E-04
 -6.18523980E-03  2.55761955E-04  1.10332300E-04  3.98936041E-04 -1.02177728E-03
 -1.05181741E-03 -1.10925133E-03  1.83000853E-05  5.66563775E-05  2.42704938E-05
  5.75097201E-01  1.58444497E-02 -6.54381105E-05 -5.49232143E-04 -1.89476138E-04
 -6.18460960E-03 -3.37025893E-05 -2.76562807E-04  3.98963434E-04 -1.05793844E-03
 -1.01551140E-03 -1.10918278E-03  5.99688293E-06 -7.29317215E-06 -6.12012094E-05
 -2.12283125E-04  3.38709483E-04 -4.10117914E-05  1.02349647E-03  3.20395325E-05
  1.33269561E-03  3.20465036E-05  1.33272694E-03 -4.07096394E-05  1.02617263E-03
  3.21284735E-05  1.33435150E-03  3.22530795E-05  1.33496010E-03  3.22485978E-05
  1.33488187E-03  3.21185305E-05  1.33424120E-03 -4.07243063E-05  1.02604160E-03
 -1.84141461E-01  3.86828352E-01 -2.03425039E-08  4.44143864E-08 -2.29407148E-03
  4.06925879E-01  1.63007919E-08  1.58334996E-08  1.72460175E-03  5.85253466E-03
  5.85253196E-03  1.01249370E-02  6.14596883E-09 -7.86943686E-09  2.43363978E-09
 -5.98721572E-02  1.09972661E-01 -5.54705299E-02  4.15019247E-02 -2.05968077E-02
  4.44155099E-02  1.62955890E-03 -1.21920246E-03 -2.58525669E-03  9.36778711E-03
  4.31246274E-03 -3.79611065E-04 -9.92081546E-03  5.36766665E-03 -4.01598142E-03
 -5.98721998E-02  1.09972747E-01  6.36770398E-02  2.72879522E-02 -2.05968285E-02
  4.44155382E-02 -1.87064924E-03 -8.01638780E-04 -2.58525420E-03  1.30169094E-02
  6.63342317E-04 -3.79614035E-04  7.48807263E-03 -6.16177974E-03 -2.64054788E-03
 -5.98722042E-02  1.09972752E-01 -8.20648269E-03 -6.87899104E-02 -2.05968313E-02
  4.44155355E-02  2.41077176E-04  2.02085110E-03 -2.58525377E-03 -1.86432105E-03
  1.55445726E-02 -3.79614088E-04  2.43275495E-03  7.94109510E-04  6.65653248E-03
  1.02235240E-01 -1.08917164E-02  2.44753796E-02  3.33972317E-03  2.33329899E-02
  1.42718922E-03  2.33329884E-02  1.42718695E-03  2.44753940E-02  3.33972031E-03
  2.33330092E-02  1.42718683E-03  2.33329960E-02  1.42718444E-03  2.33330048E-02
  1.42718912E-03  2.33329977E-02  1.42718292E-03  2.44753929E-02  3.33972212E-03
 -7.92136797E-09  2.31815961E-08 -1.97663300E-01 -1.12469172E-01  3.33468213E-08
  9.58913805E-09 -1.03529281E-01 -5.89075119E-02  1.78921452E-08  9.80926409E-03
 -9.80926308E-03 -3.57156621E-09  9.48782058E-03 -7.80015290E-03 -4.43823694E-03
  6.26015155E-02 -1.18030991E-01 -1.74783432E-02 -3.05831146E-02  5.60128023E-03
 -1.11713858E-01 -2.11675837E-03 -1.50022174E-03 -1.33710407E-03 -3.72080012E-04
 -4.76644207E-03 -3.04047432E-03  6.95673549E-05  1.21713077E-03  1.50105585E-03
 -1.55645295E-01  2.93458866E-01  1.15727720E-02  3.03673877E-04 -1.39264323E-02
  2.77752549E-01 -1.70037278E-03 -1.05751667E-03  3.32448602E-03  5.61199220E-03
  7.16389739E-03  7.55943965E-03 -1.37614677E-03  7.90061511E-05  2.91032526E-04
  9.30438072E-02 -1.75427917E-01 -2.97015293E-02  1.00192586E-02  8.32514447E-03
 -1.66038772E-01 -2.29194801E-03 -9.18274622E-04 -1.98736049E-03 -4.19234005E-03
 -3.44501273E-03 -4.51898282E-03  2.31983960E-03  1.69598336E-03 -8.95961729E-05
 -3.16940607E-08 -1.14703499E-10 -3.92500617E-02 -5.72470259E-03 -2.91585744E-02
 -1.79149492E-03 -5.44149324E-02 -1.36962407E-02  9.75866762E-02  1.42331179E-02
  1.02348083E-01  1.85249031E-02  1.05439767E-01  1.99821951E-02 -7.31895091E-02
 -1.67333998E-02 -5.10248282E-02 -6.28593270E-03 -5.83366907E-02 -8.50846194E-03
 -8.46966659E-09  9.25773203E-09  1.12469082E-01 -1.97663249E-01 -4.80869602E-08
  4.94515604E-08  5.89074823E-02 -1.03529244E-01 -2.13666065E-08  8.21670046E-03
 -8.21670012E-03  5.67644076E-09 -1.13267622E-02  4.43823497E-03 -7.80015035E-03
 -1.43580739E-01  2.70711947E-01 -1.70762581E-02 -6.25976895E-03 -1.28469351E-02
  2.56223141E-01  8.17124292E-04 -1.95595446E-03  3.06678629E-03  6.41755197E-03
  5.36804224E-03  6.97348373E-03  1.73068174E-03  3.66055820E-04  7.77614364E-04
  1.75758455E-02 -3.31380908E-02  1.38104768E-02 -3.53108391E-02  1.57260779E-03
 -3.13644825E-02  1.25981627E-03 -2.37234586E-03 -3.75427381E-04  1.05543649E-03
 -2.49813435E-03 -8.53617592E-04 -1.70240382E-03 -8.43964627E-04  1.91573563E-03
  1.26004841E-01 -2.37573753E-01  2.35260761E-02  5.96342128E-03  1.12743252E-02
 -2.24858550E-01  1.39907370E-03 -1.78077157E-03 -2.69137090E-03 -6.59548592E-03
 -3.74740847E-03 -6.11985702E-03 -1.23788994E-03 -1.22458705E-03  2.98762149E-04
  4.30878054E-08  3.39596163E-09  9.00224101E-02  1.31298467E-02  1.01346706E-01
  2.03564068E-02  9.03349320E-02  1.51659377E-02 -1.10196699E-02 -1.60720821E-03
 -2.54212628E-02 -8.62671274E-03  1.95728566E-03  4.27834868E-03 -7.59254157E-02
 -1.17296976E-02 -9.22921553E-02 -1.94442629E-02 -7.90026961E-02 -1.15226226E-02
 -7.62447764E-02  1.63866973E-01  7.05459746E-08 -1.94896912E-08 -2.34778231E-01
  2.79708071E-01  6.02054569E-08 -2.63381747E-09 -1.38859980E-01 -1.01164348E-02
 -1.01164320E-02  2.18928350E-02 -2.13295736E-09 -9.51900486E-09 -2.71056252E-09