
    -----------------------------------------------------------------------
          Psi4: An Open-Source Ab Initio Electronic Structure Package
                               Psi4 1.3.2 release

                         Git: Rev {HEAD} ecbda83 


    R. M. Parrish, L. A. Burns, D. G. A. Smith, A. C. Simmonett,
    A. E. DePrince III, E. G. Hohenstein, U. Bozkaya, A. Yu. Sokolov,
    R. Di Remigio, R. M. Richard, J. F. Gonthier, A. M. James,
    H. R. McAlexander, A. Kumar, M. Saitow, X. Wang, B. P. Pritchard,
    P. Verma, H. F. Schaefer III, K. Patkowski, R. A. King, E. F. Valeev,
    F. A. Evangelista, J. M. Turney, T. D. Crawford, and C. D. Sherrill,
    J. Chem. Theory Comput. 13(7) pp 3185--3197 (2017).
    (doi: 10.1021/acs.jctc.7b00174)


                         Additional Contributions by
    P. Kraus, H. Kruse, M. H. Lechner, M. C. Schieber, R. A. Shaw,
    A. Alenaizan, R. Galvelis, Z. L. Glick, S. Lehtola, and J. P. Misiewicz

    -----------------------------------------------------------------------


    Psi4 started on: Tuesday, 03 November 2020 07:11PM

    Process ID: 31070
    Host:       node35.bme.utexas.edu
    PSIDATADIR: /home/xy3866/psi4conda/share/psi4
    Memory:     500.0 MiB
    Threads:    8
    
  ==> Input File <==

--------------------------------------------------------------------------
#psi4
#
memory 32 gb

molecule  {
0 1
  C       -0.0008780     0.0364400     0.3700670
  C       -1.3140620    -0.5659680    -0.0888750
  C        1.2035130    -0.7636300    -0.1050350
  O        0.0270340     1.4576588    -0.2055662
  H        0.0073480     0.0821120     1.4707400
  H       -1.4374710    -1.5773920     0.3081530
  H        1.2062590    -0.8068070    -1.1976420
  H        2.1383400    -0.2964470     0.2238190
  H        1.1818030    -1.7838790     0.2901510
  H        0.8552790     1.7789920     0.1244760
  H       -1.3353960    -0.6091480    -1.1813770
  H       -2.1493090     0.0516170     0.2489950
units angstrom
no_reorient  #important for SAPT in psi4, default
symmetry c1  #important for SAPT in psi4, default
}

set PROPERTIES_ORIGIN ["COM"]
properties('MP2/aug-cc-pvtz', properties = ['dipole'])
--------------------------------------------------------------------------

  Memory set to  29.802 GiB by Python driver.
    SCF Algorithm Type (re)set to DF.

*** tstart() called on node35.bme.utexas.edu
*** at Tue Nov  3 19:11:31 2020

   => Loading Basis Set <=

    Name: AUG-CC-PVTZ
    Role: ORBITAL
    Keyword: BASIS
    atoms 1-3  entry C          line   235 file /home/xy3866/psi4conda/share/psi4/basis/aug-cc-pvtz.gbs 
    atoms 4    entry O          line   327 file /home/xy3866/psi4conda/share/psi4/basis/aug-cc-pvtz.gbs 
    atoms 5-12 entry H          line    36 file /home/xy3866/psi4conda/share/psi4/basis/aug-cc-pvtz.gbs 


         ---------------------------------------------------------
                                   SCF
               by Justin Turney, Rob Parrish, Andy Simmonett
                          and Daniel G. A. Smith
                              RHF Reference
                        8 Threads,  30517 MiB Core
         ---------------------------------------------------------

  ==> Geometry <==

    Molecular point group: c1
    Full point group: C1

    Geometry (in Angstrom), charge = 0, multiplicity = 1:

       Center              X                  Y                   Z               Mass       
    ------------   -----------------  -----------------  -----------------  -----------------
         C            0.006351925169    -0.040345486522     0.384795657527    12.000000000000
         C           -1.306832074831    -0.642753486522    -0.074146342473    12.000000000000
         C            1.210742925169    -0.840415486522    -0.090306342473    12.000000000000
         O            0.034263925169     1.380873313478    -0.190837542473    15.994914619570
         H            0.014577925169     0.005326513478     1.485468657527     1.007825032230
         H           -1.430241074831    -1.654177486522     0.322881657527     1.007825032230
         H            1.213488925169    -0.883592486522    -1.182913342473     1.007825032230
         H            2.145569925169    -0.373232486522     0.238547657527     1.007825032230
         H            1.189032925169    -1.860664486522     0.304879657527     1.007825032230
         H            0.862508925169     1.702206513478     0.139204657527     1.007825032230
         H           -1.328166074831    -0.685933486522    -1.166648342473     1.007825032230
         H           -2.142079074831    -0.025168486522     0.263723657527     1.007825032230

  Running in c1 symmetry.

  Rotational constants: A =      0.27251  B =      0.26678  C =      0.15399 [cm^-1]
  Rotational constants: A =   8169.73814  B =   7997.89072  C =   4616.39757 [MHz]
  Nuclear repulsion =  132.828455055830034

  Charge       = 0
  Multiplicity = 1
  Electrons    = 34
  Nalpha       = 17
  Nbeta        = 17

  ==> Algorithm <==

  SCF Algorithm Type is DF.
  DIIS enabled.
  MOM disabled.
  Fractional occupation disabled.
  Guess Type is SAD.
  Energy threshold   = 1.00e-10
  Density threshold  = 1.00e-10
  Integral threshold = 0.00e+00

  ==> Primary Basis <==

  Basis Set: AUG-CC-PVTZ
    Blend: AUG-CC-PVTZ
    Number of shells: 128
    Number of basis function: 368
    Number of Cartesian functions: 420
    Spherical Harmonics?: true
    Max angular momentum: 3

   => Loading Basis Set <=

    Name: (AUG-CC-PVTZ AUX)
    Role: JKFIT
    Keyword: DF_BASIS_SCF
    atoms 1-3  entry C          line   162 file /home/xy3866/psi4conda/share/psi4/basis/aug-cc-pvtz-jkfit.gbs 
    atoms 4    entry O          line   286 file /home/xy3866/psi4conda/share/psi4/basis/aug-cc-pvtz-jkfit.gbs 
    atoms 5-12 entry H          line    70 file /home/xy3866/psi4conda/share/psi4/basis/aug-cc-pvtz-jkfit.gbs 

  ==> Pre-Iterations <==

   -------------------------------------------------------
    Irrep   Nso     Nmo     Nalpha   Nbeta   Ndocc  Nsocc
   -------------------------------------------------------
     A        368     368       0       0       0       0
   -------------------------------------------------------
    Total     368     368      17      17      17       0
   -------------------------------------------------------

  ==> Integral Setup <==

  DFHelper Memory: AOs need 0.827 GiB; user supplied 22.352 GiB. Using in-core AOs.

  ==> MemDFJK: Density-Fitted J/K Matrices <==

    J tasked:                   Yes
    K tasked:                   Yes
    wK tasked:                   No
    OpenMP threads:               8
    Memory [MiB]:             22888
    Algorithm:                 Core
    Schwarz Cutoff:           1E-12
    Mask sparsity (%):       0.5066
    Fitting Condition:        1E-10

   => Auxiliary Basis Set <=

  Basis Set: (AUG-CC-PVTZ AUX)
    Blend: AUG-CC-PVTZ-JKFIT
    Number of shells: 232
    Number of basis function: 784
    Number of Cartesian functions: 964
    Spherical Harmonics?: true
    Max angular momentum: 4

  Minimum eigenvalue in the overlap matrix is 1.3349879278E-05.
  Using Symmetric Orthogonalization.

  SCF Guess: Superposition of Atomic Densities via on-the-fly atomic UHF.

  ==> Iterations <==

                           Total Energy        Delta E     RMS |[F,P]|

   @DF-RHF iter SAD:  -192.34337808857148   -1.92343e+02   0.00000e+00 
   @DF-RHF iter   1:  -192.99065795887276   -6.47280e-01   1.62601e-03 DIIS
   @DF-RHF iter   2:  -193.14744999458955   -1.56792e-01   8.54550e-04 DIIS
   @DF-RHF iter   3:  -193.18615220864177   -3.87022e-02   1.53956e-04 DIIS
   @DF-RHF iter   4:  -193.18840080646774   -2.24860e-03   6.37587e-05 DIIS
   @DF-RHF iter   5:  -193.18871191780366   -3.11111e-04   1.09525e-05 DIIS
   @DF-RHF iter   6:  -193.18872465120964   -1.27334e-05   3.05198e-06 DIIS
   @DF-RHF iter   7:  -193.18872567504059   -1.02383e-06   7.86833e-07 DIIS
   @DF-RHF iter   8:  -193.18872576121782   -8.61772e-08   2.08377e-07 DIIS
   @DF-RHF iter   9:  -193.18872576937628   -8.15845e-09   5.05742e-08 DIIS
   @DF-RHF iter  10:  -193.18872576986337   -4.87091e-10   1.28265e-08 DIIS
   @DF-RHF iter  11:  -193.18872576989224   -2.88765e-11   3.55521e-09 DIIS
   @DF-RHF iter  12:  -193.18872576989418   -1.93268e-12   9.93302e-10 DIIS
   @DF-RHF iter  13:  -193.18872576989497   -7.95808e-13   3.10510e-10 DIIS
   @DF-RHF iter  14:  -193.18872576989460    3.69482e-13   1.12879e-10 DIIS
   @DF-RHF iter  15:  -193.18872576989514   -5.40012e-13   2.95729e-11 DIIS
  Energy and wave function converged.


  ==> Post-Iterations <==

    Orbital Energies [Eh]
    ---------------------

    Doubly Occupied:                                                      

       1A    -20.551394     2A    -11.289836     3A    -11.223559  
       4A    -11.214753     5A     -1.329760     6A     -1.050201  
       7A     -0.941213     8A     -0.792919     9A     -0.678925  
      10A     -0.622653    11A     -0.601623    12A     -0.550877  
      13A     -0.537912    14A     -0.515218    15A     -0.503888  
      16A     -0.482486    17A     -0.446654  

    Virtual:                                                              

      18A      0.028541    19A      0.038323    20A      0.039502  
      21A      0.043481    22A      0.060516    23A      0.061715  
      24A      0.065466    25A      0.065632    26A      0.101871  
      27A      0.113304    28A      0.121575    29A      0.125176  
      30A      0.135962    31A      0.139510    32A      0.141577  
      33A      0.143235    34A      0.151682    35A      0.157370  
      36A      0.181584    37A      0.194935    38A      0.201915  
      39A      0.208293    40A      0.217273    41A      0.226812  
      42A      0.250541    43A      0.261439    44A      0.268225  
      45A      0.273123    46A      0.284441    47A      0.302772  
      48A      0.307152    49A      0.319805    50A      0.322949  
      51A      0.334934    52A      0.342578    53A      0.349877  
      54A      0.354831    55A      0.358475    56A      0.361849  
      57A      0.372471    58A      0.373251    59A      0.379734  
      60A      0.387141    61A      0.396175    62A      0.405730  
      63A      0.415228    64A      0.425282    65A      0.434823  
      66A      0.443652    67A      0.448551    68A      0.453955  
      69A      0.456510    70A      0.463898    71A      0.476758  
      72A      0.477563    73A      0.485349    74A      0.489486  
      75A      0.499194    76A      0.501881    77A      0.514357  
      78A      0.520454    79A      0.524813    80A      0.532551  
      81A      0.545764    82A      0.558759    83A      0.569894  
      84A      0.575518    85A      0.590622    86A      0.598880  
      87A      0.603787    88A      0.634802    89A      0.648376  
      90A      0.652442    91A      0.676102    92A      0.712591  
      93A      0.750472    94A      0.761830    95A      0.779045  
      96A      0.786963    97A      0.795260    98A      0.808978  
      99A      0.815020   100A      0.825154   101A      0.835898  
     102A      0.842373   103A      0.846261   104A      0.867085  
     105A      0.877118   106A      0.880164   107A      0.882404  
     108A      0.907922   109A      0.919329   110A      0.925214  
     111A      0.934029   112A      0.939172   113A      0.954832  
     114A      0.961541   115A      0.973340   116A      0.978377  
     117A      0.988804   118A      0.996265   119A      1.010476  
     120A      1.028185   121A      1.035538   122A      1.044448  
     123A      1.058817   124A      1.068364   125A      1.077758  
     126A      1.088530   127A      1.091301   128A      1.108072  
     129A      1.121143   130A      1.132616   131A      1.143750  
     132A      1.155017   133A      1.160508   134A      1.165588  
     135A      1.176676   136A      1.188102   137A      1.204192  
     138A      1.212318   139A      1.218137   140A      1.230356  
     141A      1.238951   142A      1.251607   143A      1.263414  
     144A      1.287121   145A      1.297166   146A      1.321119  
     147A      1.335598   148A      1.350523   149A      1.365533  
     150A      1.380581   151A      1.403797   152A      1.424078  
     153A      1.429474   154A      1.444606   155A      1.453880  
     156A      1.463723   157A      1.484574   158A      1.496792  
     159A      1.505316   160A      1.517830   161A      1.536849  
     162A      1.561843   163A      1.564744   164A      1.599127  
     165A      1.608177   166A      1.628636   167A      1.643418  
     168A      1.655952   169A      1.674160   170A      1.690194  
     171A      1.692075   172A      1.703603   173A      1.716725  
     174A      1.718403   175A      1.724252   176A      1.740261  
     177A      1.743893   178A      1.767071   179A      1.775011  
     180A      1.801259   181A      1.828672   182A      1.837641  
     183A      1.858460   184A      1.871340   185A      1.881191  
     186A      1.891322   187A      1.902584   188A      1.930321  
     189A      1.943937   190A      1.953787   191A      1.973264  
     192A      1.981445   193A      1.992139   194A      2.015123  
     195A      2.032686   196A      2.080487   197A      2.095869  
     198A      2.117442   199A      2.127803   200A      2.156928  
     201A      2.171906   202A      2.200162   203A      2.221595  
     204A      2.230636   205A      2.243849   206A      2.254532  
     207A      2.275326   208A      2.285920   209A      2.321154  
     210A      2.338567   211A      2.362280   212A      2.411991  
     213A      2.435522   214A      2.491957   215A      2.501059  
     216A      2.520462   217A      2.572526   218A      2.608296  
     219A      2.646554   220A      2.659184   221A      2.700335  
     222A      2.729936   223A      2.786364   224A      2.859345  
     225A      2.902417   226A      2.924209   227A      2.979550  
     228A      2.987245   229A      3.018379   230A      3.068976  
     231A      3.108144   232A      3.192470   233A      3.259331  
     234A      3.287638   235A      3.377263   236A      3.395412  
     237A      3.455055   238A      3.461244   239A      3.478913  
     240A      3.487292   241A      3.559229   242A      3.600903  
     243A      3.612084   244A      3.625705   245A      3.642734  
     246A      3.656799   247A      3.673361   248A      3.679289  
     249A      3.721870   250A      3.727479   251A      3.737773  
     252A      3.739813   253A      3.792231   254A      3.801722  
     255A      3.836316   256A      3.841935   257A      3.866229  
     258A      3.895117   259A      3.911508   260A      3.940767  
     261A      3.953555   262A      3.959542   263A      3.972246  
     264A      3.977807   265A      3.995289   266A      4.023227  
     267A      4.043574   268A      4.075116   269A      4.117411  
     270A      4.145275   271A      4.163809   272A      4.175502  
     273A      4.179545   274A      4.208612   275A      4.226556  
     276A      4.240128   277A      4.262327   278A      4.276072  
     279A      4.288506   280A      4.305115   281A      4.317337  
     282A      4.342695   283A      4.448613   284A      4.467963  
     285A      4.486886   286A      4.504487   287A      4.534241  
     288A      4.584096   289A      4.613090   290A      4.620906  
     291A      4.638958   292A      4.653894   293A      4.688080  
     294A      4.706063   295A      4.719155   296A      4.751293  
     297A      4.811643   298A      4.829987   299A      4.839586  
     300A      4.856750   301A      4.889458   302A      4.894375  
     303A      4.912268   304A      4.945934   305A      4.960642  
     306A      5.018597   307A      5.033390   308A      5.051626  
     309A      5.057881   310A      5.118488   311A      5.127617  
     312A      5.155473   313A      5.191950   314A      5.228611  
     315A      5.239195   316A      5.255003   317A      5.272368  
     318A      5.314829   319A      5.360670   320A      5.383599  
     321A      5.417294   322A      5.422800   323A      5.442085  
     324A      5.446915   325A      5.467612   326A      5.509187  
     327A      5.553430   328A      5.564520   329A      5.617501  
     330A      5.655617   331A      5.698277   332A      5.734454  
     333A      5.778372   334A      5.791864   335A      5.838185  
     336A      5.856723   337A      5.900826   338A      6.036343  
     339A      6.070422   340A      6.138089   341A      6.152665  
     342A      6.182529   343A      6.233938   344A      6.248221  
     345A      6.290370   346A      6.326474   347A      6.583158  
     348A      6.616766   349A      6.772218   350A      6.781766  
     351A      6.817313   352A      6.867676   353A      6.966117  
     354A      6.981423   355A      7.066762   356A      7.205266  
     357A      7.407849   358A      7.516722   359A      7.557446  
     360A      7.633872   361A      7.758617   362A      7.922210  
     363A      8.134393   364A      8.563101   365A     16.003352  
     366A     17.395583   367A     17.991917   368A     18.700765  

    Final Occupation by Irrep:
              A 
    DOCC [    17 ]

  @DF-RHF Final Energy:  -193.18872576989514

   => Energetics <=

    Nuclear Repulsion Energy =            132.8284550558300339
    One-Electron Energy =                -525.3666183159564298
    Two-Electron Energy =                 199.3494374902312529
    Total Energy =                       -193.1887257698951430

Computation Completed

*** tstop() called on node35.bme.utexas.edu at Tue Nov  3 19:11:45 2020
Module time:
	user time   =      81.20 seconds =       1.35 minutes
	system time =       6.93 seconds =       0.12 minutes
	total time  =         14 seconds =       0.23 minutes
Total time:
	user time   =      81.20 seconds =       1.35 minutes
	system time =       6.93 seconds =       0.12 minutes
	total time  =         14 seconds =       0.23 minutes
   => Loading Basis Set <=

    Name: (AUG-CC-PVTZ AUX)
    Role: RIFIT
    Keyword: DF_BASIS_MP2
    atoms 1-3  entry C          line   148 file /home/xy3866/psi4conda/share/psi4/basis/aug-cc-pvtz-ri.gbs 
    atoms 4    entry O          line   264 file /home/xy3866/psi4conda/share/psi4/basis/aug-cc-pvtz-ri.gbs 
    atoms 5-12 entry H          line    30 file /home/xy3866/psi4conda/share/psi4/basis/aug-cc-pvtz-ri.gbs 


*** tstart() called on node35.bme.utexas.edu
*** at Tue Nov  3 19:11:46 2020


  //>>>>>>>>>>>>>>>>>>>>>>>>>>>>>>>>>>>//
  //               DFMP2               //
  //<<<<<<<<<<<<<<<<<<<<<<<<<<<<<<<<<<<//

	 --------------------------------------------------------
	                          DF-MP2                         
	      2nd-Order Density-Fitted Moller-Plesset Theory     
	              RMP2 Wavefunction,   8 Threads             
	                                                         
	        Rob Parrish, Justin Turney, Andy Simmonett,      
	           Ed Hohenstein, and C. David Sherrill          
	 --------------------------------------------------------

   => Auxiliary Basis Set <=

  Basis Set: (AUG-CC-PVTZ AUX)
    Blend: AUG-CC-PVTZ-RI
    Number of shells: 224
    Number of basis function: 792
    Number of Cartesian functions: 984
    Spherical Harmonics?: true
    Max angular momentum: 4

	 --------------------------------------------------------
	                 NBF =   368, NAUX =   792
	 --------------------------------------------------------
	   CLASS    FOCC     OCC    AOCC    AVIR     VIR    FVIR
	   PAIRS       0      17      17     351     351       0
	 --------------------------------------------------------

  DFHelper Memory: AOs need 0.827 GiB; user supplied 22.352 GiB. Using in-core AOs.


         ------------------------------------------------------------
                                     CPHF                           
                                  Rob Parrish                       
         ------------------------------------------------------------

  ==> Geometry <==

    Molecular point group: c1
    Full point group: C1

    Geometry (in Angstrom), charge = 0, multiplicity = 1:

       Center              X                  Y                   Z               Mass       
    ------------   -----------------  -----------------  -----------------  -----------------
         C            0.006351925169    -0.040345486522     0.384795657527    12.000000000000
         C           -1.306832074831    -0.642753486522    -0.074146342473    12.000000000000
         C            1.210742925169    -0.840415486522    -0.090306342473    12.000000000000
         O            0.034263925169     1.380873313478    -0.190837542473    15.994914619570
         H            0.014577925169     0.005326513478     1.485468657527     1.007825032230
         H           -1.430241074831    -1.654177486522     0.322881657527     1.007825032230
         H            1.213488925169    -0.883592486522    -1.182913342473     1.007825032230
         H            2.145569925169    -0.373232486522     0.238547657527     1.007825032230
         H            1.189032925169    -1.860664486522     0.304879657527     1.007825032230
         H            0.862508925169     1.702206513478     0.139204657527     1.007825032230
         H           -1.328166074831    -0.685933486522    -1.166648342473     1.007825032230
         H           -2.142079074831    -0.025168486522     0.263723657527     1.007825032230

  Nuclear repulsion =  132.828455055830034
  Reference energy  = -193.188725769895143

  ==> Basis Set <==

  Basis Set: AUG-CC-PVTZ
    Blend: AUG-CC-PVTZ
    Number of shells: 128
    Number of basis function: 368
    Number of Cartesian functions: 420
    Spherical Harmonics?: true
    Max angular momentum: 3

  ==> CGRSolver (by Rob Parrish) <==

   Number of roots    =         1
   Preconditioning    =    JACOBI
   Convergence cutoff =     1E-06
   Maximum iterations =       100

  ==> CPHFRHamiltonian (by Rob Parrish) <== 

  ==> MemDFJK: Density-Fitted J/K Matrices <==

    J tasked:                   Yes
    K tasked:                   Yes
    wK tasked:                   No
    OpenMP threads:               8
    Memory [MiB]:             22888
    Algorithm:                 Core
    Schwarz Cutoff:           1E-12
    Mask sparsity (%):       0.5066
    Fitting Condition:        1E-10

   => Auxiliary Basis Set <=

  Basis Set: (AUG-CC-PVTZ AUX)
    Blend: AUG-CC-PVTZ-JKFIT
    Number of shells: 232
    Number of basis function: 784
    Number of Cartesian functions: 964
    Spherical Harmonics?: true
    Max angular momentum: 4

  ==> CPHF Iterations <==

  => Iterations <=

             Iter  Converged  Remaining    Residual
  CGR           1          0          1   8.139E-02
  CGR           2          0          1   1.963E-02
  CGR           3          0          1   7.698E-03
  CGR           4          0          1   1.887E-03
  CGR           5          0          1   5.827E-04
  CGR           6          0          1   1.600E-04
  CGR           7          0          1   4.164E-05
  CGR           8          0          1   1.322E-05
  CGR           9          0          1   3.057E-06
  CGR          10          1          0   8.021E-07

    CGRSolver converged.

	-----------------------------------------------------------
	 ==================> DF-MP2 Energies <==================== 
	-----------------------------------------------------------
	 Reference Energy          =    -193.1887257698951430 [Eh]
	 Singles Energy            =      -0.0000000000000000 [Eh]
	 Same-Spin Energy          =      -0.1917766284555675 [Eh]
	 Opposite-Spin Energy      =      -0.6747639839123720 [Eh]
	 Correlation Energy        =      -0.8665406123679396 [Eh]
	 Total Energy              =    -194.0552663822630848 [Eh]
	-----------------------------------------------------------
	 ================> DF-SCS-MP2 Energies <================== 
	-----------------------------------------------------------
	 SCS Same-Spin Scale       =       0.3333333333333333 [-]
	 SCS Opposite-Spin Scale   =       1.2000000000000000 [-]
	 SCS Same-Spin Energy      =      -0.0639255428185225 [Eh]
	 SCS Opposite-Spin Energy  =      -0.8097167806948464 [Eh]
	 SCS Correlation Energy    =      -0.8736423235133689 [Eh]
	 SCS Total Energy          =    -194.0623680934085087 [Eh]
	-----------------------------------------------------------



Properties will be evaluated at   0.000000,   0.000000,   0.000000 [a0]

Properties computed using the MP2 density matrix

  Nuclear Dipole Moment: [e a0]
     X:     0.4920      Y:    -3.5325      Z:     0.3789

  Electronic Dipole Moment: [e a0]
     X:    -0.0636      Y:     3.0336      Z:     0.0302

  Dipole Moment: [e a0]
     X:     0.4285      Y:    -0.4989      Z:     0.4091     Total:     0.7745

  Dipole Moment: [D]
     X:     1.0890      Y:    -1.2682      Z:     1.0398     Total:     1.9686


*** tstop() called on node35.bme.utexas.edu at Tue Nov  3 19:12:17 2020
Module time:
	user time   =     192.76 seconds =       3.21 minutes
	system time =      13.43 seconds =       0.22 minutes
	total time  =         31 seconds =       0.52 minutes
Total time:
	user time   =     274.35 seconds =       4.57 minutes
	system time =      20.38 seconds =       0.34 minutes
	total time  =         46 seconds =       0.77 minutes

    Psi4 stopped on: Tuesday, 03 November 2020 07:12PM
    Psi4 wall time for execution: 0:00:45.38

*** Psi4 exiting successfully. Buy a developer a beer!
