3613359                                                                 
Freq      RMP2-FC                                                     6-31G(d)            
Number of atoms                            I               15
Info1-9                                    I   N=           9
          27          25        1002           0           0         100
           6           2           1
Charge                                     I                1
Multiplicity                               I                1
Number of electrons                        I               40
Number of alpha electrons                  I               20
Number of beta electrons                   I               20
Number of basis functions                  I               95
Number of independent functions            I               95
Number of point charges in /Mol/           I                0
Number of translation vectors              I                0
Atomic numbers                             I   N=          15
           7           6           6           6           6           1
           1           1           1           1           1           1
           1           1           1
Nuclear charges                            R   N=          15
  7.00000000E+00  6.00000000E+00  6.00000000E+00  6.00000000E+00  6.00000000E+00
  1.00000000E+00  1.00000000E+00  1.00000000E+00  1.00000000E+00  1.00000000E+00
  1.00000000E+00  1.00000000E+00  1.00000000E+00  1.00000000E+00  1.00000000E+00
Current cartesian coordinates              R   N=          45
 -2.32905142E+00 -4.57862805E-05 -1.99273780E-06 -6.27998507E-01  2.32704900E+00
  2.75378964E-01 -6.27905395E-01 -2.32707472E+00 -2.75374926E-01  1.97273923E+00
  1.36052886E+00 -4.85974676E-01  1.97279521E+00 -1.36044998E+00  4.85972877E-01
 -3.49832923E+00 -1.75782330E-01  1.53832310E+00 -3.49832730E+00  1.75646087E-01
 -1.53833365E+00 -6.93225666E-01  2.88512386E+00  2.25921333E+00 -1.39045052E+00
  3.84708562E+00 -8.88633864E-01 -6.93111156E-01 -2.88516166E+00 -2.25920656E+00
 -1.39029515E+00 -3.84713699E+00  8.88644967E-01  3.46453617E+00  2.51889366E+00
  3.45834675E-01  2.20004043E+00  1.40818152E+00 -2.54107923E+00  3.46463694E+00
 -2.51875520E+00 -3.45839155E-01  2.20010221E+00 -1.40809310E+00  2.54107690E+00
Force Field                                I                0
Int Atom Types                             I   N=          15
           0           0           0           0           0           0
           0           0           0           0           0           0
           0           0           0
MM charges                                 R   N=          15
  0.00000000E+00  0.00000000E+00  0.00000000E+00  0.00000000E+00  0.00000000E+00
  0.00000000E+00  0.00000000E+00  0.00000000E+00  0.00000000E+00  0.00000000E+00
  0.00000000E+00  0.00000000E+00  0.00000000E+00  0.00000000E+00  0.00000000E+00
Integer atomic weights                     I   N=          15
          14          12          12          12          12           1
           1           1           1           1           1           1
           1           1           1
Real atomic weights                        R   N=          15
  1.40030740E+01  1.20000000E+01  1.20000000E+01  1.20000000E+01  1.20000000E+01
  1.00782504E+00  1.00782504E+00  1.00782504E+00  1.00782504E+00  1.00782504E+00
  1.00782504E+00  1.00782504E+00  1.00782504E+00  1.00782504E+00  1.00782504E+00
Atom fragment info                         I   N=          15
           0           0           0           0           0           0
           0           0           0           0           0           0
           0           0           0
Atom residue num                           I   N=          15
           0           0           0           0           0           0
           0           0           0           0           0           0
           0           0           0
Nuclear spins                              I   N=          15
           2           0           0           0           0           1
           1           1           1           1           1           1
           1           1           1
Nuclear ZEff                               R   N=          15
 -4.55000000E+00 -3.60000000E+00 -3.60000000E+00 -3.60000000E+00 -3.60000000E+00
 -1.00000000E+00 -1.00000000E+00 -1.00000000E+00 -1.00000000E+00 -1.00000000E+00
 -1.00000000E+00 -1.00000000E+00 -1.00000000E+00 -1.00000000E+00 -1.00000000E+00
Nuclear QMom                               R   N=          15
  2.04400000E+00  0.00000000E+00  0.00000000E+00  0.00000000E+00  0.00000000E+00
  0.00000000E+00  0.00000000E+00  0.00000000E+00  0.00000000E+00  0.00000000E+00
  0.00000000E+00  0.00000000E+00  0.00000000E+00  0.00000000E+00  0.00000000E+00
Nuclear GFac                               R   N=          15
  4.03761000E-01  0.00000000E+00  0.00000000E+00  0.00000000E+00  0.00000000E+00
  2.79284600E+00  2.79284600E+00  2.79284600E+00  2.79284600E+00  2.79284600E+00
  2.79284600E+00  2.79284600E+00  2.79284600E+00  2.79284600E+00  2.79284600E+00
MicOpt                                     I   N=          15
          -1          -1          -1          -1          -1          -1
          -1          -1          -1          -1          -1          -1
          -1          -1          -1
Number of contracted shells                I               40
Number of primitive shells                 I               95
Pure/Cartesian d shells                    I                1
Pure/Cartesian f shells                    I                0
Highest angular momentum                   I                2
Largest degree of contraction              I                6
Shell types                                I   N=          40
           0          -1          -1           2           0          -1
          -1           2           0          -1          -1           2
           0          -1          -1           2           0          -1
          -1           2           0           0           0           0
           0           0           0           0           0           0
           0           0           0           0           0           0
           0           0           0           0
Number of primitives per shell             I   N=          40
           6           3           1           1           6           3
           1           1           6           3           1           1
           6           3           1           1           6           3
           1           1           3           1           3           1
           3           1           3           1           3           1
           3           1           3           1           3           1
           3           1           3           1
Shell to atom map                          I   N=          40
           1           1           1           1           2           2
           2           2           3           3           3           3
           4           4           4           4           5           5
           5           5           6           6           7           7
           8           8           9           9          10          10
          11          11          12          12          13          13
          14          14          15          15
Primitive exponents                        R   N=          95
  4.17351146E+03  6.27457911E+02  1.42902093E+02  4.02343293E+01  1.28202129E+01
  4.39043701E+00  1.16263619E+01  2.71627981E+00  7.72218397E-01  2.12031498E-01
  8.00000000E-01  3.04752488E+03  4.57369518E+02  1.03948685E+02  2.92101553E+01
  9.28666296E+00  3.16392696E+00  7.86827235E+00  1.88128854E+00  5.44249258E-01
  1.68714478E-01  8.00000000E-01  3.04752488E+03  4.57369518E+02  1.03948685E+02
  2.92101553E+01  9.28666296E+00  3.16392696E+00  7.86827235E+00  1.88128854E+00
  5.44249258E-01  1.68714478E-01  8.00000000E-01  3.04752488E+03  4.57369518E+02
  1.03948685E+02  2.92101553E+01  9.28666296E+00  3.16392696E+00  7.86827235E+00
  1.88128854E+00  5.44249258E-01  1.68714478E-01  8.00000000E-01  3.04752488E+03
  4.57369518E+02  1.03948685E+02  2.92101553E+01  9.28666296E+00  3.16392696E+00
  7.86827235E+00  1.88128854E+00  5.44249258E-01  1.68714478E-01  8.00000000E-01
  1.87311370E+01  2.82539436E+00  6.40121692E-01  1.61277759E-01  1.87311370E+01
  2.82539436E+00  6.40121692E-01  1.61277759E-01  1.87311370E+01  2.82539436E+00
  6.40121692E-01  1.61277759E-01  1.87311370E+01  2.82539436E+00  6.40121692E-01
  1.61277759E-01  1.87311370E+01  2.82539436E+00  6.40121692E-01  1.61277759E-01
  1.87311370E+01  2.82539436E+00  6.40121692E-01  1.61277759E-01  1.87311370E+01
  2.82539436E+00  6.40121692E-01  1.61277759E-01  1.87311370E+01  2.82539436E+00
  6.40121692E-01  1.61277759E-01  1.87311370E+01  2.82539436E+00  6.40121692E-01
  1.61277759E-01  1.87311370E+01  2.82539436E+00  6.40121692E-01  1.61277759E-01
Contraction coefficients                   R   N=          95
  1.83477216E-03  1.39946270E-02  6.85865518E-02  2.32240873E-01  4.69069948E-01
  3.60455199E-01 -1.14961182E-01 -1.69117479E-01  1.14585195E+00  1.00000000E+00
  1.00000000E+00  1.83473713E-03  1.40373228E-02  6.88426223E-02  2.32184443E-01
  4.67941348E-01  3.62311985E-01 -1.19332420E-01 -1.60854152E-01  1.14345644E+00
  1.00000000E+00  1.00000000E+00  1.83473713E-03  1.40373228E-02  6.88426223E-02
  2.32184443E-01  4.67941348E-01  3.62311985E-01 -1.19332420E-01 -1.60854152E-01
  1.14345644E+00  1.00000000E+00  1.00000000E+00  1.83473713E-03  1.40373228E-02
  6.88426223E-02  2.32184443E-01  4.67941348E-01  3.62311985E-01 -1.19332420E-01
 -1.60854152E-01  1.14345644E+00  1.00000000E+00  1.00000000E+00  1.83473713E-03
  1.40373228E-02  6.88426223E-02  2.32184443E-01  4.67941348E-01  3.62311985E-01
 -1.19332420E-01 -1.60854152E-01  1.14345644E+00  1.00000000E+00  1.00000000E+00
  3.34946043E-02  2.34726953E-01  8.13757326E-01  1.00000000E+00  3.34946043E-02
  2.34726953E-01  8.13757326E-01  1.00000000E+00  3.34946043E-02  2.34726953E-01
  8.13757326E-01  1.00000000E+00  3.34946043E-02  2.34726953E-01  8.13757326E-01
  1.00000000E+00  3.34946043E-02  2.34726953E-01  8.13757326E-01  1.00000000E+00
  3.34946043E-02  2.34726953E-01  8.13757326E-01  1.00000000E+00  3.34946043E-02
  2.34726953E-01  8.13757326E-01  1.00000000E+00  3.34946043E-02  2.34726953E-01
  8.13757326E-01  1.00000000E+00  3.34946043E-02  2.34726953E-01  8.13757326E-01
  1.00000000E+00  3.34946043E-02  2.34726953E-01  8.13757326E-01  1.00000000E+00
P(S=P) Contraction coefficients            R   N=          95
  0.00000000E+00  0.00000000E+00  0.00000000E+00  0.00000000E+00  0.00000000E+00
  0.00000000E+00  6.75797439E-02  3.23907296E-01  7.40895140E-01  1.00000000E+00
  0.00000000E+00  0.00000000E+00  0.00000000E+00  0.00000000E+00  0.00000000E+00
  0.00000000E+00  0.00000000E+00  6.89990666E-02  3.16423961E-01  7.44308291E-01
  1.00000000E+00  0.00000000E+00  0.00000000E+00  0.00000000E+00  0.00000000E+00
  0.00000000E+00  0.00000000E+00  0.00000000E+00  6.89990666E-02  3.16423961E-01
  7.44308291E-01  1.00000000E+00  0.00000000E+00  0.00000000E+00  0.00000000E+00
  0.00000000E+00  0.00000000E+00  0.00000000E+00  0.00000000E+00  6.89990666E-02
  3.16423961E-01  7.44308291E-01  1.00000000E+00  0.00000000E+00  0.00000000E+00
  0.00000000E+00  0.00000000E+00  0.00000000E+00  0.00000000E+00  0.00000000E+00
  6.89990666E-02  3.16423961E-01  7.44308291E-01  1.00000000E+00  0.00000000E+00
  0.00000000E+00  0.00000000E+00  0.00000000E+00  0.00000000E+00  0.00000000E+00
  0.00000000E+00  0.00000000E+00  0.00000000E+00  0.00000000E+00  0.00000000E+00
  0.00000000E+00  0.00000000E+00  0.00000000E+00  0.00000000E+00  0.00000000E+00
  0.00000000E+00  0.00000000E+00  0.00000000E+00  0.00000000E+00  0.00000000E+00
  0.00000000E+00  0.00000000E+00  0.00000000E+00  0.00000000E+00  0.00000000E+00
  0.00000000E+00  0.00000000E+00  0.00000000E+00  0.00000000E+00  0.00000000E+00
  0.00000000E+00  0.00000000E+00  0.00000000E+00  0.00000000E+00  0.00000000E+00
  0.00000000E+00  0.00000000E+00  0.00000000E+00  0.00000000E+00  0.00000000E+00
Coordinates of each shell                  R   N=         120
 -2.32905142E+00 -4.57862805E-05 -1.99273780E-06 -2.32905142E+00 -4.57862805E-05
 -1.99273780E-06 -2.32905142E+00 -4.57862805E-05 -1.99273780E-06 -2.32905142E+00
 -4.57862805E-05 -1.99273780E-06 -6.27998507E-01  2.32704900E+00  2.75378964E-01
 -6.27998507E-01  2.32704900E+00  2.75378964E-01 -6.27998507E-01  2.32704900E+00
  2.75378964E-01 -6.27998507E-01  2.32704900E+00  2.75378964E-01 -6.27905395E-01
 -2.32707472E+00 -2.75374926E-01 -6.27905395E-01 -2.32707472E+00 -2.75374926E-01
 -6.27905395E-01 -2.32707472E+00 -2.75374926E-01 -6.27905395E-01 -2.32707472E+00
 -2.75374926E-01  1.97273923E+00  1.36052886E+00 -4.85974676E-01  1.97273923E+00
  1.36052886E+00 -4.85974676E-01  1.97273923E+00  1.36052886E+00 -4.85974676E-01
  1.97273923E+00  1.36052886E+00 -4.85974676E-01  1.97279521E+00 -1.36044998E+00
  4.85972877E-01  1.97279521E+00 -1.36044998E+00  4.85972877E-01  1.97279521E+00
 -1.36044998E+00  4.85972877E-01  1.97279521E+00 -1.36044998E+00  4.85972877E-01
 -3.49832923E+00 -1.75782330E-01  1.53832310E+00 -3.49832923E+00 -1.75782330E-01
  1.53832310E+00 -3.49832730E+00  1.75646087E-01 -1.53833365E+00 -3.49832730E+00
  1.75646087E-01 -1.53833365E+00 -6.93225666E-01  2.88512386E+00  2.25921333E+00
 -6.93225666E-01  2.88512386E+00  2.25921333E+00 -1.39045052E+00  3.84708562E+00
 -8.88633864E-01 -1.39045052E+00  3.84708562E+00 -8.88633864E-01 -6.93111156E-01
 -2.88516166E+00 -2.25920656E+00 -6.93111156E-01 -2.88516166E+00 -2.25920656E+00
 -1.39029515E+00 -3.84713699E+00  8.88644967E-01 -1.39029515E+00 -3.84713699E+00
  8.88644967E-01  3.46453617E+00  2.51889366E+00  3.45834675E-01  3.46453617E+00
  2.51889366E+00  3.45834675E-01  2.20004043E+00  1.40818152E+00 -2.54107923E+00
  2.20004043E+00  1.40818152E+00 -2.54107923E+00  3.46463694E+00 -2.51875520E+00
 -3.45839155E-01  3.46463694E+00 -2.51875520E+00 -3.45839155E-01  2.20010221E+00
 -1.40809310E+00  2.54107690E+00  2.20010221E+00 -1.40809310E+00  2.54107690E+00
Constraint Structure                       R   N=          45
 -2.32905142E+00 -4.57862805E-05 -1.99273780E-06 -6.27998507E-01  2.32704900E+00
  2.75378964E-01 -6.27905395E-01 -2.32707472E+00 -2.75374926E-01  1.97273923E+00
  1.36052886E+00 -4.85974676E-01  1.97279521E+00 -1.36044998E+00  4.85972877E-01
 -3.49832923E+00 -1.75782330E-01  1.53832310E+00 -3.49832730E+00  1.75646087E-01
 -1.53833365E+00 -6.93225666E-01  2.88512386E+00  2.25921333E+00 -1.39045052E+00
  3.84708562E+00 -8.88633864E-01 -6.93111156E-01 -2.88516166E+00 -2.25920656E+00
 -1.39029515E+00 -3.84713699E+00  8.88644967E-01  3.46453617E+00  2.51889366E+00
  3.45834675E-01  2.20004043E+00  1.40818152E+00 -2.54107923E+00  3.46463694E+00
 -2.51875520E+00 -3.45839155E-01  2.20010221E+00 -1.40809310E+00  2.54107690E+00
Num ILSW                                   I              100
ILSW                                       I   N=         100
           0           1           0           0           2           0
           0           0           0           0           0          -1
           0           0           0           0           0           0
           0           0           0           0           1           0
           1           0           0           0           0           0
           0           0      100000           0          -1           0
           0           0           0           0           0           0
           0           0           0           1           1           0
           0           0           1           0           0           0
           0           0           4          40           0           0
           0           0           0           0           0           0
           0           0           0           0           0           0
           0           0           0           0           0           0
           0           0           0           0           0           0
           0           0           0           0           0           0
           0           0           0           0           0           0
           0           0           0           0
Num RLSW                                   I               40
RLSW                                       R   N=          40
  1.00000000E+00  1.00000000E+00  1.00000000E+00  1.00000000E+00  1.00000000E+00
  0.00000000E+00  0.00000000E+00  1.00000000E+00  0.00000000E+00  0.00000000E+00
  0.00000000E+00  0.00000000E+00  1.00000000E+00  0.00000000E+00  0.00000000E+00
  0.00000000E+00  0.00000000E+00  1.00000000E+00  0.00000000E+00  0.00000000E+00
  0.00000000E+00  0.00000000E+00  1.00000000E+00  0.00000000E+00  0.00000000E+00
  0.00000000E+00  0.00000000E+00  1.00000000E+00  0.00000000E+00  0.00000000E+00
  0.00000000E+00  0.00000000E+00  0.00000000E+00  0.00000000E+00  0.00000000E+00
  0.00000000E+00  0.00000000E+00  0.00000000E+00  1.00000000E+00  1.00000000E+00
MxBond                                     I                4
NBond                                      I   N=          15
           4           4           4           4           4           1
           1           1           1           1           1           1
           1           1           1
IBond                                      I   N=          60
           2           3           6           7           1           4
           8           9           1           5          10          11
           2           5          12          13           3           4
          14          15           1           0           0           0
           1           0           0           0           2           0
           0           0           2           0           0           0
           3           0           0           0           3           0
           0           0           4           0           0           0
           4           0           0           0           5           0
           0           0           5           0           0           0
RBond                                      R   N=          60
  1.00000000E+00  1.00000000E+00  1.00000000E+00  1.00000000E+00  1.00000000E+00
  1.00000000E+00  1.00000000E+00  1.00000000E+00  1.00000000E+00  1.00000000E+00
  1.00000000E+00  1.00000000E+00  1.00000000E+00  1.00000000E+00  1.00000000E+00
  1.00000000E+00  1.00000000E+00  1.00000000E+00  1.00000000E+00  1.00000000E+00
  1.00000000E+00  0.00000000E+00  0.00000000E+00  0.00000000E+00  1.00000000E+00
  0.00000000E+00  0.00000000E+00  0.00000000E+00  1.00000000E+00  0.00000000E+00
  0.00000000E+00  0.00000000E+00  1.00000000E+00  0.00000000E+00  0.00000000E+00
  0.00000000E+00  1.00000000E+00  0.00000000E+00  0.00000000E+00  0.00000000E+00
  1.00000000E+00  0.00000000E+00  0.00000000E+00  0.00000000E+00  1.00000000E+00
  0.00000000E+00  0.00000000E+00  0.00000000E+00  1.00000000E+00  0.00000000E+00
  0.00000000E+00  0.00000000E+00  1.00000000E+00  0.00000000E+00  0.00000000E+00
  0.00000000E+00  1.00000000E+00  0.00000000E+00  0.00000000E+00  0.00000000E+00
Virial Ratio                               R      2.001732276328749E+00
SCF Energy                                 R     -2.115275487891100E+02
MP2 Energy                                 R     -2.122062785644557E+02
Total Energy                               R     -2.122062785644557E+02
Post-SCF wavefunction norm                 R      1.561109575278240E+00
RMS Force                                  R      9.980930277045656E-08
RMS Density                                R      7.823815572496084E-10
External E-field                           R   N=          35
  0.00000000E+00  0.00000000E+00  0.00000000E+00  0.00000000E+00  0.00000000E+00
  0.00000000E+00  0.00000000E+00  0.00000000E+00  0.00000000E+00  0.00000000E+00
  0.00000000E+00  0.00000000E+00  0.00000000E+00  0.00000000E+00  0.00000000E+00
  0.00000000E+00  0.00000000E+00  0.00000000E+00  0.00000000E+00  0.00000000E+00
  0.00000000E+00  0.00000000E+00  0.00000000E+00  0.00000000E+00  0.00000000E+00
  0.00000000E+00  0.00000000E+00  0.00000000E+00  0.00000000E+00  0.00000000E+00
  0.00000000E+00  0.00000000E+00  0.00000000E+00  0.00000000E+00  0.00000000E+00
IOpCl                                      I                0
IROHF                                      I                0
Alpha Orbital Energies                     R   N=          95
 -1.58783695E+01 -1.14704462E+01 -1.14704317E+01 -1.14056197E+01 -1.14050140E+01
 -1.50127856E+00 -1.25842845E+00 -1.19602535E+00 -1.04164327E+00 -9.99572310E-01
 -9.58842620E-01 -9.09287360E-01 -8.29704153E-01 -7.96020368E-01 -7.61121585E-01
 -7.43216730E-01 -7.02884278E-01 -6.88056503E-01 -6.73191129E-01 -6.59588334E-01
 -8.89806910E-03  2.68403725E-02  7.08712237E-02  1.04275313E-01  1.22194752E-01
  1.25763396E-01  1.28439961E-01  1.39951954E-01  1.55190654E-01  1.55961166E-01
  1.95880198E-01  2.05902934E-01  2.22963815E-01  2.42371191E-01  2.82324985E-01
  5.06391531E-01  5.39583116E-01  5.49688127E-01  5.82779086E-01  5.84234213E-01
  6.08819700E-01  7.20822546E-01  7.36240933E-01  7.44588432E-01  7.63206843E-01
  7.91452270E-01  8.00985013E-01  8.99104723E-01  9.00008656E-01  9.17683964E-01
  9.28543242E-01  9.40868252E-01  9.53877927E-01  9.61984243E-01  9.76084720E-01
  1.00671667E+00  1.01084914E+00  1.04554531E+00  1.05364504E+00  1.07399776E+00
  1.22002603E+00  1.35531068E+00  1.37893414E+00  1.38293366E+00  1.62893545E+00
  1.67541316E+00  1.73757594E+00  1.88124803E+00  1.89440346E+00  1.92486449E+00
  2.00082387E+00  2.01562499E+00  2.07643123E+00  2.09921639E+00  2.14214910E+00
  2.17493154E+00  2.18796805E+00  2.19704692E+00  2.27811837E+00  2.36088850E+00
  2.38659867E+00  2.51326248E+00  2.51424804E+00  2.61757947E+00  2.66314340E+00
  2.72576239E+00  2.75782518E+00  2.76252954E+00  2.76579442E+00  2.98262342E+00
  4.08049772E+00  4.43801412E+00  4.46345043E+00  4.72062817E+00  4.77720453E+00
Alpha MO coefficients                      R   N=        9025
  9.95036370E-01  2.52171107E-02 -1.92340885E-04 -3.23997508E-09 -7.97232135E-10
 -3.48641694E-03 -5.30178854E-04 -1.11856395E-08 -8.92294909E-10 -3.35515087E-03
 -3.42967219E-03 -3.25723586E-03  1.91761180E-09  1.73533590E-10 -2.54072004E-05
 -3.78907250E-05 -3.34184372E-05 -1.92285869E-04 -2.44570775E-04 -3.67371535E-05
  1.79059226E-03 -1.62694849E-04 -6.23537647E-04 -4.88741352E-05 -6.96077643E-05
 -1.37728096E-05 -1.04584058E-04  4.80843739E-05  5.63181249E-07  2.13899272E-05
 -3.78907974E-05 -3.34189776E-05 -1.92295160E-04  2.44563382E-04  3.67362433E-05
  1.79059387E-03 -1.62718316E-04  6.23531027E-04  4.88737451E-05 -6.96041616E-05
 -1.37755758E-05 -1.04584127E-04 -4.80870557E-05 -5.63916105E-07  2.13896613E-05
  4.21620413E-06  2.45926874E-05  5.97569601E-05 -2.03549262E-05 -9.51254495E-06
 -4.05549494E-04  2.20679432E-04  2.53870294E-05 -4.01310571E-05 -1.93389015E-05
  1.11951397E-05 -1.80973005E-05  4.19010827E-06  4.77790609E-06  4.06687881E-06
  4.21654967E-06  2.45945082E-05  5.97558711E-05  2.03573222E-05  9.51269595E-06
 -4.05559937E-04  2.20684378E-04 -2.53820247E-05  4.01308229E-05 -1.93384879E-05
  1.11951932E-05 -1.80968543E-05 -4.19121442E-06 -4.77814423E-06  4.06678894E-06
  3.52412115E-04  3.83628384E-04  3.52412327E-04  3.83628654E-04 -1.04455929E-04
 -1.59526118E-04 -8.26195353E-05 -9.62696334E-05 -1.04455705E-04 -1.59525550E-04
 -8.26197674E-05 -9.62702068E-05  1.88859550E-06  9.19180407E-06  3.54967115E-05
 -4.62129979E-05  1.88879764E-06  9.19043170E-06  3.54973896E-05 -4.62119581E-05
 -1.27427932E-07  5.01185205E-08  4.41163449E-08 -9.12989790E-05 -7.83781404E-07
  2.23676282E-06  4.15228429E-07 -1.36801181E-03 -2.90966329E-04 -2.56259994E-07
 -3.41922156E-07 -1.42955778E-08  4.72519090E-04  4.79820456E-05 -4.47858039E-08
 -7.03882747E-01 -1.99844839E-02  3.73679608E-04  6.38256813E-04  1.67203168E-05
  1.13679045E-02  2.48070040E-04 -1.16481032E-03  1.62440100E-04  1.14269256E-03
  1.17893341E-03  9.55015093E-04  1.08081734E-04 -1.85956159E-05  5.89888721E-05
  7.04534159E-01  2.00027659E-02 -3.74049061E-04  6.38754575E-04  1.67195949E-05
 -1.13783707E-02 -2.48201466E-04 -1.16585518E-03  1.62365581E-04 -1.14375682E-03
 -1.17995975E-03 -9.55994320E-04  1.08183007E-04 -1.86156642E-05 -5.90213350E-05
 -3.36507147E-03 -3.35779239E-04  1.00169731E-04  9.58836693E-06  1.77374592E-05
 -2.38862794E-03  8.06944771E-04 -8.55463966E-04 -5.84481113E-04  2.79277284E-04
  1.55243339E-04  4.77129019E-05  2.45927652E-05 -4.85297824E-05 -1.61958321E-05
  3.36800728E-03  3.35683438E-04 -1.00200685E-04  9.47967203E-06  1.76915826E-05
  2.39147052E-03 -8.08378234E-04 -8.55548611E-04 -5.84294894E-04 -2.79527446E-04
 -1.55358340E-04 -4.78437034E-05  2.44764667E-05 -4.86076889E-05  1.62115212E-05
  2.36438266E-06  7.10897021E-05 -2.60261721E-06 -7.09185860E-05 -1.78513067E-04
 -2.04991555E-03 -7.92215711E-05 -1.58415930E-03  1.78669977E-04  2.05166685E-03
  7.93363842E-05  1.58565451E-03  1.00506701E-04  4.22984847E-04  5.28377111E-05
 -2.02096622E-04 -1.00567270E-04 -4.22650742E-04 -5.30520834E-05  2.01917702E-04
 -2.75939248E-04  1.07571235E-04  9.10424285E-05  4.37216847E-08  1.91946613E-10
  4.84693371E-03  8.44304090E-04  6.50821370E-07  1.38466256E-07 -5.18839738E-04
 -7.74344910E-04 -3.18668069E-05 -2.12605537E-07 -2.15347370E-08 -1.01035233E-04
  7.04507931E-01  1.97740845E-02 -3.72082862E-04 -5.55441951E-04 -2.37535434E-07
 -1.13283036E-02 -1.93207469E-04  1.13003871E-03  7.75782332E-05 -1.14250105E-03
 -1.11721710E-03 -1.05959057E-03 -1.07711277E-04  2.39081648E-05 -3.48708824E-05
  7.03856495E-01  1.97555879E-02 -3.71758956E-04  5.54836313E-04  2.19800895E-07
 -1.13177778E-02 -1.92936450E-04 -1.12896527E-03 -7.77225871E-05 -1.14145143E-03
 -1.11611939E-03 -1.05870641E-03  1.07610181E-04 -2.38897185E-05 -3.48165328E-05
  3.17758838E-03 -1.03925676E-04 -3.31510331E-05  1.13223450E-04  4.98072647E-05
  3.07828196E-03 -1.58871992E-03  5.59372762E-05 -1.97498963E-04 -2.68617831E-04
 -1.26672415E-04 -1.41738686E-04  1.19803574E-04  8.39591058E-05  1.91036260E-05
  3.17447122E-03 -1.04237825E-04 -3.30538448E-05 -1.13233581E-04 -4.98236340E-05
  3.07608036E-03 -1.58797012E-03 -5.52066611E-05  1.98041439E-04 -2.68351632E-04
 -1.26537326E-04 -1.41694689E-04 -1.19832995E-04 -8.39144659E-05  1.90855422E-05
 -2.57002047E-04  1.86525140E-04 -2.56999353E-04  1.86594073E-04  1.71499321E-04
  1.89738910E-03  1.23493761E-04  1.61084049E-03  1.71334374E-04  1.89549167E-03
  1.23420293E-04  1.60937370E-03 -6.57829774E-05  3.61875896E-04 -2.31701502E-04
 -1.93568535E-04 -6.56903668E-05  3.62266329E-04 -2.31652513E-04 -1.93757538E-04
  1.20984981E-05 -7.00156011E-05 -2.39232143E-05 -1.59331471E-09  1.50687757E-09
 -9.14392666E-04 -3.54895411E-04 -6.47726668E-09 -8.35287106E-09  1.46458614E-04
 -2.30264046E-05 -5.33261986E-05  4.90148874E-09 -7.87097795E-10 -2.17687380E-05
 -3.46708824E-03 -3.05424324E-04 -3.93961456E-06 -2.16083696E-05 -5.56342462E-05
  4.29096200E-03  1.51222393E-03 -1.00624560E-03 -7.15876544E-05 -3.86554412E-04
 -9.56199074E-05 -1.39525847E-04  3.62376553E-05  8.77047138E-05 -5.24818442E-05
 -3.46693189E-03 -3.05432808E-04 -3.94544130E-06  2.16066482E-05  5.56369337E-05
  4.29083526E-03  1.51214121E-03  1.00629675E-03  7.15455864E-05 -3.86538362E-04
 -9.56140432E-05 -1.39524172E-04 -3.62446811E-05 -8.76988847E-05 -5.24841151E-05
  7.04088932E-01  2.04426872E-02 -3.39786059E-04 -1.95209730E-04  8.90319073E-05
 -9.77950024E-03  1.40812996E-03 -6.35995300E-04 -4.02887904E-06 -1.25874688E-03
 -1.45981053E-03 -1.18294041E-03  5.75519512E-05  6.11625941E-05  1.34579251E-04
  7.04058162E-01  2.04418034E-02 -3.39778339E-04  1.95195531E-04 -8.90288957E-05
 -9.77883881E-03  1.40805991E-03  6.36132848E-04  3.99710346E-06 -1.25869827E-03
 -1.45977727E-03 -1.18289569E-03 -5.75395516E-05 -6.11677483E-05  1.34579542E-04
  1.25915236E-05 -3.35357029E-05  1.25894214E-05 -3.35471196E-05 -2.28866670E-04
 -2.36716893E-04 -1.38951685E-04  2.03056559E-04 -2.28863922E-04 -2.36730425E-04
 -1.38945716E-04  2.03073973E-04  3.52489401E-05  1.47843131E-03  7.69426245E-05
  1.91510321E-03  3.52388154E-05  1.47835767E-03  7.69289641E-05  1.91501957E-03
  7.80384559E-10  8.64936747E-10 -1.10462935E-09  5.26949564E-05 -5.07582710E-05
 -3.43283744E-08 -1.53113410E-08 -2.36672244E-05  1.90181866E-04  4.68357670E-09
 -5.71439250E-10 -2.67432501E-10 -3.71712911E-05  4.65462186E-05  5.09602954E-10
  3.52298968E-03 -2.02789602E-04 -1.16305171E-04  5.10353376E-05 -5.39031389E-05
 -2.88515218E-03 -9.81506886E-04  1.28001395E-04  8.95778279E-04  3.17693838E-04
  1.87226009E-04  2.88777541E-05 -1.49621434E-04 -7.93461887E-05  1.68862398E-05
 -3.52313917E-03  2.02773172E-04  1.16302222E-04  5.10410970E-05 -5.39008254E-05
  2.88536201E-03  9.81570983E-04  1.28098405E-04  8.95781438E-04 -3.17701555E-04
 -1.87240310E-04 -2.88841558E-05 -1.49629317E-04 -7.93484987E-05 -1.68909394E-05
 -7.04248475E-01 -2.02316494E-02  3.66738375E-04  9.64226342E-06 -5.69692088E-05
  1.51263134E-02 -1.04318527E-03 -1.83457045E-03  6.20938019E-04  1.02719543E-03
  8.48341594E-04  1.01744262E-03 -6.26724766E-05 -5.68903346E-07  6.15852039E-05
  7.04279237E-01  2.02325437E-02 -3.66753310E-04  9.63633655E-06 -5.69724868E-05
 -1.51267497E-02  1.04332824E-03 -1.83450148E-03  6.20935781E-04 -1.02724650E-03
 -8.48409303E-04 -1.01749426E-03 -6.26833675E-05 -5.69143194E-07 -6.15791108E-05
 -3.21332722E-05 -1.64575496E-04  3.21352223E-05  1.64571483E-04  5.38948513E-05
 -3.07615194E-04  1.41329542E-04  4.39557634E-04 -5.39062404E-05  3.07604956E-04
 -1.41336359E-04 -4.39547217E-04 -2.26115887E-04 -1.67223209E-03 -3.21596185E-04
 -1.93046904E-03  2.26117330E-04  1.67229555E-03  3.21600267E-04  1.93055300E-03
 -1.83309340E-01  3.85867304E-01  5.87711820E-03  2.58219813E-07 -2.08071800E-08
  4.04369340E-01  8.20991186E-03  2.14796164E-07 -1.16006438E-08  1.22763403E-02