
    -----------------------------------------------------------------------
          Psi4: An Open-Source Ab Initio Electronic Structure Package
                               Psi4 1.3.2 release

                         Git: Rev {HEAD} ecbda83 


    R. M. Parrish, L. A. Burns, D. G. A. Smith, A. C. Simmonett,
    A. E. DePrince III, E. G. Hohenstein, U. Bozkaya, A. Yu. Sokolov,
    R. Di Remigio, R. M. Richard, J. F. Gonthier, A. M. James,
    H. R. McAlexander, A. Kumar, M. Saitow, X. Wang, B. P. Pritchard,
    P. Verma, H. F. Schaefer III, K. Patkowski, R. A. King, E. F. Valeev,
    F. A. Evangelista, J. M. Turney, T. D. Crawford, and C. D. Sherrill,
    J. Chem. Theory Comput. 13(7) pp 3185--3197 (2017).
    (doi: 10.1021/acs.jctc.7b00174)


                         Additional Contributions by
    P. Kraus, H. Kruse, M. H. Lechner, M. C. Schieber, R. A. Shaw,
    A. Alenaizan, R. Galvelis, Z. L. Glick, S. Lehtola, and J. P. Misiewicz

    -----------------------------------------------------------------------


    Psi4 started on: Wednesday, 04 November 2020 09:43PM

    Process ID: 94395
    Host:       node35.bme.utexas.edu
    PSIDATADIR: /home/xy3866/psi4conda/share/psi4
    Memory:     500.0 MiB
    Threads:    8
    
  ==> Input File <==

--------------------------------------------------------------------------
#psi4
#
memory 32 gb

molecule  {
0 1
  C       -0.0000730    -0.0001100    -0.3769120
  C       -0.0324293     1.4554186     0.0843001
  C        1.2621130    -0.7181570     0.0963290
  C       -1.2531000    -0.7336160     0.0963310
  H        0.0001270     0.0001580    -1.4755210
  H       -0.0092500     1.4957160     1.1912990
  H        0.8735630     1.9915400    -0.2617730
  H       -0.8981180     1.9803230    -0.2618970
  H        1.3008650    -0.7388270     1.1912450
  H        2.1645300    -0.2131340    -0.2626890
  H        1.2876640    -1.7526070    -0.2608010
  H       -1.2910520    -0.7567680     1.1912960
  H       -1.2667340    -1.7676670    -0.2625410
  H       -2.1617050    -0.2387050    -0.2612260
units angstrom
no_reorient  #important for SAPT in psi4, default
symmetry c1  #important for SAPT in psi4, default
}

set PROPERTIES_ORIGIN ["COM"]
properties('MP2/aug-cc-pvtz', properties = ['dipole'])
--------------------------------------------------------------------------

  Memory set to  29.802 GiB by Python driver.
    SCF Algorithm Type (re)set to DF.

*** tstart() called on node35.bme.utexas.edu
*** at Wed Nov  4 21:43:14 2020

   => Loading Basis Set <=

    Name: AUG-CC-PVTZ
    Role: ORBITAL
    Keyword: BASIS
    atoms 1-4  entry C          line   235 file /home/xy3866/psi4conda/share/psi4/basis/aug-cc-pvtz.gbs 
    atoms 5-14 entry H          line    36 file /home/xy3866/psi4conda/share/psi4/basis/aug-cc-pvtz.gbs 


         ---------------------------------------------------------
                                   SCF
               by Justin Turney, Rob Parrish, Andy Simmonett
                          and Daniel G. A. Smith
                              RHF Reference
                        8 Threads,  30517 MiB Core
         ---------------------------------------------------------

  ==> Geometry <==

    Molecular point group: c1
    Full point group: C1

    Geometry (in Angstrom), charge = 0, multiplicity = 1:

       Center              X                  Y                   Z               Mass       
    ------------   -----------------  -----------------  -----------------  -----------------
         C            0.004782216181    -0.000841021108    -0.365411930062    12.000000000000
         C           -0.027574083819     1.454687578892     0.095800169938    12.000000000000
         C            1.266968216181    -0.718888021108     0.107829069938    12.000000000000
         C           -1.248244783819    -0.734347021108     0.107831069938    12.000000000000
         H            0.004982216181    -0.000573021108    -1.464020930062     1.007825032230
         H           -0.004394783819     1.494984978892     1.202799069938     1.007825032230
         H            0.878418216181     1.990808978892    -0.250272930062     1.007825032230
         H           -0.893262783819     1.979591978892    -0.250396930062     1.007825032230
         H            1.305720216181    -0.739558021108     1.202745069938     1.007825032230
         H            2.169385216181    -0.213865021108    -0.251188930062     1.007825032230
         H            1.292519216181    -1.753338021108    -0.249300930062     1.007825032230
         H           -1.286196783819    -0.757499021108     1.202796069938     1.007825032230
         H           -1.261878783819    -1.768398021108    -0.251040930062     1.007825032230
         H           -2.156849783819    -0.239436021108    -0.249725930062     1.007825032230

  Running in c1 symmetry.

  Rotational constants: A =      0.26261  B =      0.25927  C =      0.15132 [cm^-1]
  Rotational constants: A =   7872.94672  B =   7772.82934  C =   4536.48242 [MHz]
  Nuclear repulsion =  134.722669535762208

  Charge       = 0
  Multiplicity = 1
  Electrons    = 34
  Nalpha       = 17
  Nbeta        = 17

  ==> Algorithm <==

  SCF Algorithm Type is DF.
  DIIS enabled.
  MOM disabled.
  Fractional occupation disabled.
  Guess Type is SAD.
  Energy threshold   = 1.00e-10
  Density threshold  = 1.00e-10
  Integral threshold = 0.00e+00

  ==> Primary Basis <==

  Basis Set: AUG-CC-PVTZ
    Blend: AUG-CC-PVTZ
    Number of shells: 146
    Number of basis function: 414
    Number of Cartesian functions: 470
    Spherical Harmonics?: true
    Max angular momentum: 3

   => Loading Basis Set <=

    Name: (AUG-CC-PVTZ AUX)
    Role: JKFIT
    Keyword: DF_BASIS_SCF
    atoms 1-4  entry C          line   162 file /home/xy3866/psi4conda/share/psi4/basis/aug-cc-pvtz-jkfit.gbs 
    atoms 5-14 entry H          line    70 file /home/xy3866/psi4conda/share/psi4/basis/aug-cc-pvtz-jkfit.gbs 

  ==> Pre-Iterations <==

   -------------------------------------------------------
    Irrep   Nso     Nmo     Nalpha   Nbeta   Ndocc  Nsocc
   -------------------------------------------------------
     A        414     414       0       0       0       0
   -------------------------------------------------------
    Total     414     414      17      17      17       0
   -------------------------------------------------------

  ==> Integral Setup <==

  DFHelper Memory: AOs need 1.162 GiB; user supplied 22.352 GiB. Using in-core AOs.

  ==> MemDFJK: Density-Fitted J/K Matrices <==

    J tasked:                   Yes
    K tasked:                   Yes
    wK tasked:                   No
    OpenMP threads:               8
    Memory [MiB]:             22888
    Algorithm:                 Core
    Schwarz Cutoff:           1E-12
    Mask sparsity (%):       0.6278
    Fitting Condition:        1E-10

   => Auxiliary Basis Set <=

  Basis Set: (AUG-CC-PVTZ AUX)
    Blend: AUG-CC-PVTZ-JKFIT
    Number of shells: 260
    Number of basis function: 876
    Number of Cartesian functions: 1074
    Spherical Harmonics?: true
    Max angular momentum: 4

  Minimum eigenvalue in the overlap matrix is 5.6007354292E-06.
  Using Symmetric Orthogonalization.

  SCF Guess: Superposition of Atomic Densities via on-the-fly atomic UHF.

  ==> Iterations <==

                           Total Energy        Delta E     RMS |[F,P]|

   @DF-RHF iter SAD:  -156.83794997141302   -1.56838e+02   0.00000e+00 
   @DF-RHF iter   1:  -157.12222154716829   -2.84272e-01   1.48223e-03 DIIS
   @DF-RHF iter   2:  -157.30622540316509   -1.84004e-01   7.26342e-04 DIIS
   @DF-RHF iter   3:  -157.35290408170127   -4.66787e-02   1.25922e-04 DIIS
   @DF-RHF iter   4:  -157.35553947168512   -2.63539e-03   3.55056e-05 DIIS
   @DF-RHF iter   5:  -157.35569304314424   -1.53571e-04   6.78202e-06 DIIS
   @DF-RHF iter   6:  -157.35570094588900   -7.90274e-06   1.19325e-06 DIIS
   @DF-RHF iter   7:  -157.35570119791819   -2.52029e-07   2.86283e-07 DIIS
   @DF-RHF iter   8:  -157.35570121572391   -1.78057e-08   5.21034e-08 DIIS
   @DF-RHF iter   9:  -157.35570121634788   -6.23970e-10   9.44351e-09 DIIS
   @DF-RHF iter  10:  -157.35570121636752   -1.96394e-11   3.29894e-09 DIIS
   @DF-RHF iter  11:  -157.35570121636943   -1.90425e-12   8.43880e-10 DIIS
   @DF-RHF iter  12:  -157.35570121636937    5.68434e-14   1.20612e-10 DIIS
   @DF-RHF iter  13:  -157.35570121636948   -1.13687e-13   2.23978e-11 DIIS
  Energy and wave function converged.


  ==> Post-Iterations <==

    Orbital Energies [Eh]
    ---------------------

    Doubly Occupied:                                                      

       1A    -11.222914     2A    -11.208933     3A    -11.208568  
       4A    -11.208152     5A     -1.080469     6A     -0.926159  
       7A     -0.924439     8A     -0.764344     9A     -0.630590  
      10A     -0.590703    11A     -0.588466    12A     -0.531977  
      13A     -0.529299    14A     -0.509698    15A     -0.465322  
      16A     -0.459271    17A     -0.456144  

    Virtual:                                                              

      18A      0.031136    19A      0.039323    20A      0.039527  
      21A      0.039681    22A      0.059716    23A      0.059857  
      24A      0.062665    25A      0.063885    26A      0.064128  
      27A      0.079845    28A      0.111787    29A      0.124067  
      30A      0.124182    31A      0.130493    32A      0.130720  
      33A      0.134474    34A      0.138968    35A      0.142915  
      36A      0.143193    37A      0.150154    38A      0.166930  
      39A      0.167266    40A      0.188261    41A      0.193431  
      42A      0.194940    43A      0.195160    44A      0.239828  
      45A      0.251196    46A      0.251536    47A      0.259761  
      48A      0.260704    49A      0.289342    50A      0.297599  
      51A      0.306520    52A      0.306726    53A      0.321877  
      54A      0.322301    55A      0.330676    56A      0.338054  
      57A      0.338468    58A      0.349408    59A      0.359989  
      60A      0.368682    61A      0.369246    62A      0.370436  
      63A      0.371312    64A      0.388266    65A      0.394135  
      66A      0.398469    67A      0.399137    68A      0.410569  
      69A      0.411381    70A      0.420656    71A      0.438756  
      72A      0.439487    73A      0.440425    74A      0.454326  
      75A      0.454657    76A      0.458861    77A      0.460808  
      78A      0.464185    79A      0.465080    80A      0.474447  
      81A      0.475269    82A      0.494334    83A      0.502965  
      84A      0.508362    85A      0.515421    86A      0.516353  
      87A      0.518428    88A      0.520339    89A      0.520532  
      90A      0.550941    91A      0.563999    92A      0.565042  
      93A      0.588440    94A      0.589028    95A      0.611423  
      96A      0.616333    97A      0.619039    98A      0.619781  
      99A      0.625397   100A      0.628010   101A      0.629257  
     102A      0.651364   103A      0.651945   104A      0.689399  
     105A      0.689855   106A      0.753977   107A      0.767255  
     108A      0.768097   109A      0.769284   110A      0.814027  
     111A      0.814653   112A      0.815952   113A      0.817753  
     114A      0.838132   115A      0.845131   116A      0.846056  
     117A      0.860902   118A      0.861851   119A      0.865270  
     120A      0.880947   121A      0.904822   122A      0.905437  
     123A      0.915656   124A      0.916670   125A      0.920299  
     126A      0.923482   127A      0.925941   128A      0.937737  
     129A      0.951122   130A      0.953453   131A      0.955892  
     132A      0.956539   133A      0.958564   134A      1.010519  
     135A      1.019922   136A      1.024164   137A      1.025837  
     138A      1.031246   139A      1.066765   140A      1.069400  
     141A      1.080148   142A      1.081266   143A      1.082226  
     144A      1.103254   145A      1.104307   146A      1.107392  
     147A      1.115604   148A      1.161099   149A      1.161755  
     150A      1.173509   151A      1.187778   152A      1.189057  
     153A      1.196327   154A      1.197728   155A      1.199322  
     156A      1.207407   157A      1.209304   158A      1.223913  
     159A      1.230509   160A      1.230849   161A      1.256087  
     162A      1.268142   163A      1.270448   164A      1.316010  
     165A      1.317036   166A      1.321472   167A      1.350568  
     168A      1.352914   169A      1.386541   170A      1.387261  
     171A      1.388797   172A      1.404396   173A      1.410308  
     174A      1.426575   175A      1.445855   176A      1.446617  
     177A      1.475123   178A      1.477557   179A      1.493722  
     180A      1.498066   181A      1.499024   182A      1.502302  
     183A      1.528685   184A      1.530752   185A      1.531683  
     186A      1.592285   187A      1.593592   188A      1.605418  
     189A      1.645592   190A      1.660267   191A      1.662119  
     192A      1.663549   193A      1.671897   194A      1.672944  
     195A      1.696077   196A      1.696867   197A      1.726863  
     198A      1.727817   199A      1.734087   200A      1.739183  
     201A      1.753290   202A      1.754436   203A      1.774740  
     204A      1.775576   205A      1.798418   206A      1.799397  
     207A      1.839792   208A      1.842854   209A      1.878961  
     210A      1.889117   211A      1.891399   212A      1.893279  
     213A      1.902036   214A      1.904121   215A      1.926105  
     216A      1.930055   217A      1.934677   218A      1.954294  
     219A      1.991701   220A      1.992212   221A      1.993944  
     222A      1.996664   223A      2.045900   224A      2.048570  
     225A      2.078016   226A      2.080576   227A      2.110599  
     228A      2.115159   229A      2.134765   230A      2.164947  
     231A      2.168733   232A      2.186165   233A      2.200314  
     234A      2.233775   235A      2.242034   236A      2.245386  
     237A      2.250791   238A      2.288682   239A      2.290207  
     240A      2.292013   241A      2.322816   242A      2.324254  
     243A      2.389294   244A      2.391336   245A      2.397344  
     246A      2.408834   247A      2.409835   248A      2.483630  
     249A      2.515175   250A      2.516933   251A      2.518141  
     252A      2.522772   253A      2.526444   254A      2.568878  
     255A      2.583809   256A      2.662834   257A      2.737341  
     258A      2.908764   259A      2.917498   260A      3.086014  
     261A      3.251392   262A      3.256766   263A      3.351232  
     264A      3.396093   265A      3.429257   266A      3.435380  
     267A      3.441905   268A      3.444172   269A      3.455783  
     270A      3.498536   271A      3.507278   272A      3.510083  
     273A      3.621766   274A      3.624687   275A      3.644494  
     276A      3.657584   277A      3.673045   278A      3.673548  
     279A      3.693639   280A      3.726783   281A      3.729220  
     282A      3.735547   283A      3.738923   284A      3.741065  
     285A      3.755764   286A      3.779126   287A      3.784727  
     288A      3.815467   289A      3.818333   290A      3.823548  
     291A      3.826382   292A      3.878383   293A      3.883986  
     294A      3.890909   295A      3.930792   296A      3.933091  
     297A      3.950596   298A      3.953271   299A      3.984127  
     300A      3.986426   301A      3.997102   302A      4.012922  
     303A      4.046259   304A      4.048614   305A      4.051518  
     306A      4.055080   307A      4.062034   308A      4.067475  
     309A      4.143827   310A      4.172658   311A      4.173649  
     312A      4.200510   313A      4.214158   314A      4.217169  
     315A      4.255202   316A      4.262204   317A      4.263528  
     318A      4.269695   319A      4.271455   320A      4.339531  
     321A      4.349573   322A      4.362488   323A      4.371584  
     324A      4.389263   325A      4.415453   326A      4.443850  
     327A      4.461566   328A      4.466872   329A      4.471590  
     330A      4.527741   331A      4.636614   332A      4.638505  
     333A      4.647561   334A      4.694862   335A      4.699325  
     336A      4.704114   337A      4.734390   338A      4.739067  
     339A      4.747509   340A      4.753318   341A      4.791458  
     342A      4.855224   343A      4.865040   344A      4.866375  
     345A      4.868898   346A      4.874266   347A      4.892812  
     348A      4.907154   349A      4.910187   350A      4.967363  
     351A      4.971170   352A      4.987444   353A      5.009214  
     354A      5.059960   355A      5.083504   356A      5.087587  
     357A      5.151188   358A      5.155613   359A      5.174212  
     360A      5.233669   361A      5.260766   362A      5.267651  
     363A      5.293042   364A      5.294414   365A      5.296060  
     366A      5.333774   367A      5.344923   368A      5.363403  
     369A      5.369174   370A      5.398443   371A      5.406748  
     372A      5.461752   373A      5.463376   374A      5.482802  
     375A      5.495890   376A      5.516898   377A      5.581865  
     378A      5.590436   379A      5.597637   380A      5.614173  
     381A      5.665534   382A      5.678471   383A      5.763212  
     384A      5.767391   385A      5.780588   386A      5.789369  
     387A      5.870512   388A      5.878142   389A      5.926500  
     390A      5.937176   391A      5.954977   392A      6.053200  
     393A      6.061630   394A      6.135809   395A      6.141491  
     396A      6.154714   397A      6.242278   398A      6.274555  
     399A      6.294566   400A      6.307074   401A      6.365290  
     402A      6.382359   403A      6.390367   404A      6.670102  
     405A      6.805571   406A      6.810309   407A      6.896725  
     408A      6.909274   409A      6.913018   410A      6.921193  
     411A     17.549739   412A     18.035324   413A     18.089176  
     414A     19.348476  

    Final Occupation by Irrep:
              A 
    DOCC [    17 ]

  @DF-RHF Final Energy:  -157.35570121636948

   => Energetics <=

    Nuclear Repulsion Energy =            134.7226695357622077
    One-Electron Energy =                -477.5458461243670740
    Two-Electron Energy =                 185.4674753722353557
    Total Energy =                       -157.3557012163694822

Computation Completed

*** tstop() called on node35.bme.utexas.edu at Wed Nov  4 21:43:30 2020
Module time:
	user time   =      94.84 seconds =       1.58 minutes
	system time =       7.42 seconds =       0.12 minutes
	total time  =         16 seconds =       0.27 minutes
Total time:
	user time   =      94.84 seconds =       1.58 minutes
	system time =       7.42 seconds =       0.12 minutes
	total time  =         16 seconds =       0.27 minutes
   => Loading Basis Set <=

    Name: (AUG-CC-PVTZ AUX)
    Role: RIFIT
    Keyword: DF_BASIS_MP2
    atoms 1-4  entry C          line   148 file /home/xy3866/psi4conda/share/psi4/basis/aug-cc-pvtz-ri.gbs 
    atoms 5-14 entry H          line    30 file /home/xy3866/psi4conda/share/psi4/basis/aug-cc-pvtz-ri.gbs 


*** tstart() called on node35.bme.utexas.edu
*** at Wed Nov  4 21:43:30 2020


  //>>>>>>>>>>>>>>>>>>>>>>>>>>>>>>>>>>>//
  //               DFMP2               //
  //<<<<<<<<<<<<<<<<<<<<<<<<<<<<<<<<<<<//

	 --------------------------------------------------------
	                          DF-MP2                         
	      2nd-Order Density-Fitted Moller-Plesset Theory     
	              RMP2 Wavefunction,   8 Threads             
	                                                         
	        Rob Parrish, Justin Turney, Andy Simmonett,      
	           Ed Hohenstein, and C. David Sherrill          
	 --------------------------------------------------------

   => Auxiliary Basis Set <=

  Basis Set: (AUG-CC-PVTZ AUX)
    Blend: AUG-CC-PVTZ-RI
    Number of shells: 252
    Number of basis function: 884
    Number of Cartesian functions: 1094
    Spherical Harmonics?: true
    Max angular momentum: 4

	 --------------------------------------------------------
	                 NBF =   414, NAUX =   884
	 --------------------------------------------------------
	   CLASS    FOCC     OCC    AOCC    AVIR     VIR    FVIR
	   PAIRS       0      17      17     397     397       0
	 --------------------------------------------------------

  DFHelper Memory: AOs need 1.162 GiB; user supplied 22.352 GiB. Using in-core AOs.


         ------------------------------------------------------------
                                     CPHF                           
                                  Rob Parrish                       
         ------------------------------------------------------------

  ==> Geometry <==

    Molecular point group: c1
    Full point group: C1

    Geometry (in Angstrom), charge = 0, multiplicity = 1:

       Center              X                  Y                   Z               Mass       
    ------------   -----------------  -----------------  -----------------  -----------------
         C            0.004782216181    -0.000841021108    -0.365411930062    12.000000000000
         C           -0.027574083819     1.454687578892     0.095800169938    12.000000000000
         C            1.266968216181    -0.718888021108     0.107829069938    12.000000000000
         C           -1.248244783819    -0.734347021108     0.107831069938    12.000000000000
         H            0.004982216181    -0.000573021108    -1.464020930062     1.007825032230
         H           -0.004394783819     1.494984978892     1.202799069938     1.007825032230
         H            0.878418216181     1.990808978892    -0.250272930062     1.007825032230
         H           -0.893262783819     1.979591978892    -0.250396930062     1.007825032230
         H            1.305720216181    -0.739558021108     1.202745069938     1.007825032230
         H            2.169385216181    -0.213865021108    -0.251188930062     1.007825032230
         H            1.292519216181    -1.753338021108    -0.249300930062     1.007825032230
         H           -1.286196783819    -0.757499021108     1.202796069938     1.007825032230
         H           -1.261878783819    -1.768398021108    -0.251040930062     1.007825032230
         H           -2.156849783819    -0.239436021108    -0.249725930062     1.007825032230

  Nuclear repulsion =  134.722669535762208
  Reference energy  = -157.355701216369482

  ==> Basis Set <==

  Basis Set: AUG-CC-PVTZ
    Blend: AUG-CC-PVTZ
    Number of shells: 146
    Number of basis function: 414
    Number of Cartesian functions: 470
    Spherical Harmonics?: true
    Max angular momentum: 3

  ==> CGRSolver (by Rob Parrish) <==

   Number of roots    =         1
   Preconditioning    =    JACOBI
   Convergence cutoff =     1E-06
   Maximum iterations =       100

  ==> CPHFRHamiltonian (by Rob Parrish) <== 

  ==> MemDFJK: Density-Fitted J/K Matrices <==

    J tasked:                   Yes
    K tasked:                   Yes
    wK tasked:                   No
    OpenMP threads:               8
    Memory [MiB]:             22888
    Algorithm:                 Core
    Schwarz Cutoff:           1E-12
    Mask sparsity (%):       0.6278
    Fitting Condition:        1E-10

   => Auxiliary Basis Set <=

  Basis Set: (AUG-CC-PVTZ AUX)
    Blend: AUG-CC-PVTZ-JKFIT
    Number of shells: 260
    Number of basis function: 876
    Number of Cartesian functions: 1074
    Spherical Harmonics?: true
    Max angular momentum: 4

  ==> CPHF Iterations <==

  => Iterations <=

             Iter  Converged  Remaining    Residual
  CGR           1          0          1   8.658E-02
  CGR           2          0          1   1.432E-02
  CGR           3          0          1   4.112E-03
  CGR           4          0          1   8.708E-04
  CGR           5          0          1   1.669E-04
  CGR           6          0          1   3.437E-05
  CGR           7          0          1   5.328E-06
  CGR           8          0          1   1.111E-06
  CGR           9          1          0   3.163E-07

    CGRSolver converged.

	-----------------------------------------------------------
	 ==================> DF-MP2 Energies <==================== 
	-----------------------------------------------------------
	 Reference Energy          =    -157.3557012163694822 [Eh]
	 Singles Energy            =      -0.0000000000000000 [Eh]
	 Same-Spin Energy          =      -0.1664619400254388 [Eh]
	 Opposite-Spin Energy      =      -0.6408871558051206 [Eh]
	 Correlation Energy        =      -0.8073490958305594 [Eh]
	 Total Energy              =    -158.1630503122000277 [Eh]
	-----------------------------------------------------------
	 ================> DF-SCS-MP2 Energies <================== 
	-----------------------------------------------------------
	 SCS Same-Spin Scale       =       0.3333333333333333 [-]
	 SCS Opposite-Spin Scale   =       1.2000000000000000 [-]
	 SCS Same-Spin Energy      =      -0.0554873133418129 [Eh]
	 SCS Opposite-Spin Energy  =      -0.7690645869661447 [Eh]
	 SCS Correlation Energy    =      -0.8245519003079576 [Eh]
	 SCS Total Energy          =    -158.1802531166774486 [Eh]
	-----------------------------------------------------------



Properties will be evaluated at   0.000000,  -0.000000,   0.000000 [a0]

Properties computed using the MP2 density matrix

  Nuclear Dipole Moment: [e a0]
     X:     0.0454      Y:    -0.0068      Z:     0.6022

  Electronic Dipole Moment: [e a0]
     X:    -0.0472      Y:     0.0062      Z:    -0.6588

  Dipole Moment: [e a0]
     X:    -0.0017      Y:    -0.0007      Z:    -0.0565     Total:     0.0566

  Dipole Moment: [D]
     X:    -0.0044      Y:    -0.0017      Z:    -0.1437     Total:     0.1438


*** tstop() called on node35.bme.utexas.edu at Wed Nov  4 21:44:20 2020
Module time:
	user time   =     296.25 seconds =       4.94 minutes
	system time =      23.46 seconds =       0.39 minutes
	total time  =         50 seconds =       0.83 minutes
Total time:
	user time   =     391.35 seconds =       6.52 minutes
	system time =      30.88 seconds =       0.51 minutes
	total time  =         66 seconds =       1.10 minutes

    Psi4 stopped on: Wednesday, 04 November 2020 09:44PM
    Psi4 wall time for execution: 0:01:06.51

*** Psi4 exiting successfully. Buy a developer a beer!
