opt=(Tight,CalcAll)                                                     
Freq      RMP2-FC                                                     6-31G(d)            
Number of atoms                            I               10
Info1-9                                    I   N=           9
          19          19        1002           0           0         100
           6           2           1
Charge                                     I                0
Multiplicity                               I                1
Number of electrons                        I               32
Number of alpha electrons                  I               16
Number of beta electrons                   I               16
Number of basis functions                  I               72
Number of independent functions            I               72
Number of point charges in /Mol/           I                0
Number of translation vectors              I                0
Atomic numbers                             I   N=          10
           8           6           6           6           1           1
           1           1           1           1
Nuclear charges                            R   N=          10
  8.00000000E+00  6.00000000E+00  6.00000000E+00  6.00000000E+00  1.00000000E+00
  1.00000000E+00  1.00000000E+00  1.00000000E+00  1.00000000E+00  1.00000000E+00
Current cartesian coordinates              R   N=          30
  1.34562727E-07  2.65830775E+00 -4.44089210E-16  7.18859781E-08  3.38471113E-01
 -6.51663636E-08 -2.43254724E+00 -1.16574505E+00 -2.61921374E-08  2.43254715E+00
 -1.16574522E+00  1.66533454E-16 -2.52015330E+00 -2.39005232E+00 -1.66561141E+00
 -2.52015638E+00 -2.39004728E+00  1.66561482E+00 -4.03767948E+00  1.25926667E-01
 -3.23071174E-06  2.52015381E+00 -2.39005137E+00 -1.66561221E+00  4.03767960E+00
  1.25926211E-01 -1.32430153E-06  2.52015478E+00 -2.39004900E+00  1.66561384E+00
Force Field                                I                0
Int Atom Types                             I   N=          10
           0           0           0           0           0           0
           0           0           0           0
MM charges                                 R   N=          10
  0.00000000E+00  0.00000000E+00  0.00000000E+00  0.00000000E+00  0.00000000E+00
  0.00000000E+00  0.00000000E+00  0.00000000E+00  0.00000000E+00  0.00000000E+00
Integer atomic weights                     I   N=          10
          16          12          12          12           1           1
           1           1           1           1
Real atomic weights                        R   N=          10
  1.59949146E+01  1.20000000E+01  1.20000000E+01  1.20000000E+01  1.00782504E+00
  1.00782504E+00  1.00782504E+00  1.00782504E+00  1.00782504E+00  1.00782504E+00
Atom fragment info                         I   N=          10
           0           0           0           0           0           0
           0           0           0           0
Atom residue num                           I   N=          10
           0           0           0           0           0           0
           0           0           0           0
Nuclear spins                              I   N=          10
           0           0           0           0           1           1
           1           1           1           1
Nuclear ZEff                               R   N=          10
 -5.60000000E+00 -3.60000000E+00 -3.60000000E+00 -3.60000000E+00 -1.00000000E+00
 -1.00000000E+00 -1.00000000E+00 -1.00000000E+00 -1.00000000E+00 -1.00000000E+00
Nuclear QMom                               R   N=          10
  0.00000000E+00  0.00000000E+00  0.00000000E+00  0.00000000E+00  0.00000000E+00
  0.00000000E+00  0.00000000E+00  0.00000000E+00  0.00000000E+00  0.00000000E+00
Nuclear GFac                               R   N=          10
  0.00000000E+00  0.00000000E+00  0.00000000E+00  0.00000000E+00  2.79284600E+00
  2.79284600E+00  2.79284600E+00  2.79284600E+00  2.79284600E+00  2.79284600E+00
MicOpt                                     I   N=          10
          -1          -1          -1          -1          -1          -1
          -1          -1          -1          -1
Number of contracted shells                I               28
Number of primitive shells                 I               68
Pure/Cartesian d shells                    I                1
Pure/Cartesian f shells                    I                0
Highest angular momentum                   I                2
Largest degree of contraction              I                6
Shell types                                I   N=          28
           0          -1          -1           2           0          -1
          -1           2           0          -1          -1           2
           0          -1          -1           2           0           0
           0           0           0           0           0           0
           0           0           0           0
Number of primitives per shell             I   N=          28
           6           3           1           1           6           3
           1           1           6           3           1           1
           6           3           1           1           3           1
           3           1           3           1           3           1
           3           1           3           1
Shell to atom map                          I   N=          28
           1           1           1           1           2           2
           2           2           3           3           3           3
           4           4           4           4           5           5
           6           6           7           7           8           8
           9           9          10          10
Primitive exponents                        R   N=          68
  5.48467166E+03  8.25234946E+02  1.88046958E+02  5.29645000E+01  1.68975704E+01
  5.79963534E+00  1.55396162E+01  3.59993359E+00  1.01376175E+00  2.70005823E-01
  8.00000000E-01  3.04752488E+03  4.57369518E+02  1.03948685E+02  2.92101553E+01
  9.28666296E+00  3.16392696E+00  7.86827235E+00  1.88128854E+00  5.44249258E-01
  1.68714478E-01  8.00000000E-01  3.04752488E+03  4.57369518E+02  1.03948685E+02
  2.92101553E+01  9.28666296E+00  3.16392696E+00  7.86827235E+00  1.88128854E+00
  5.44249258E-01  1.68714478E-01  8.00000000E-01  3.04752488E+03  4.57369518E+02
  1.03948685E+02  2.92101553E+01  9.28666296E+00  3.16392696E+00  7.86827235E+00
  1.88128854E+00  5.44249258E-01  1.68714478E-01  8.00000000E-01  1.87311370E+01
  2.82539436E+00  6.40121692E-01  1.61277759E-01  1.87311370E+01  2.82539436E+00
  6.40121692E-01  1.61277759E-01  1.87311370E+01  2.82539436E+00  6.40121692E-01
  1.61277759E-01  1.87311370E+01  2.82539436E+00  6.40121692E-01  1.61277759E-01
  1.87311370E+01  2.82539436E+00  6.40121692E-01  1.61277759E-01  1.87311370E+01
  2.82539436E+00  6.40121692E-01  1.61277759E-01
Contraction coefficients                   R   N=          68
  1.83107443E-03  1.39501722E-02  6.84450781E-02  2.32714336E-01  4.70192898E-01
  3.58520853E-01 -1.10777550E-01 -1.48026263E-01  1.13076702E+00  1.00000000E+00
  1.00000000E+00  1.83473713E-03  1.40373228E-02  6.88426223E-02  2.32184443E-01
  4.67941348E-01  3.62311985E-01 -1.19332420E-01 -1.60854152E-01  1.14345644E+00
  1.00000000E+00  1.00000000E+00  1.83473713E-03  1.40373228E-02  6.88426223E-02
  2.32184443E-01  4.67941348E-01  3.62311985E-01 -1.19332420E-01 -1.60854152E-01
  1.14345644E+00  1.00000000E+00  1.00000000E+00  1.83473713E-03  1.40373228E-02
  6.88426223E-02  2.32184443E-01  4.67941348E-01  3.62311985E-01 -1.19332420E-01
 -1.60854152E-01  1.14345644E+00  1.00000000E+00  1.00000000E+00  3.34946043E-02
  2.34726953E-01  8.13757326E-01  1.00000000E+00  3.34946043E-02  2.34726953E-01
  8.13757326E-01  1.00000000E+00  3.34946043E-02  2.34726953E-01  8.13757326E-01
  1.00000000E+00  3.34946043E-02  2.34726953E-01  8.13757326E-01  1.00000000E+00
  3.34946043E-02  2.34726953E-01  8.13757326E-01  1.00000000E+00  3.34946043E-02
  2.34726953E-01  8.13757326E-01  1.00000000E+00
P(S=P) Contraction coefficients            R   N=          68
  0.00000000E+00  0.00000000E+00  0.00000000E+00  0.00000000E+00  0.00000000E+00
  0.00000000E+00  7.08742682E-02  3.39752839E-01  7.27158577E-01  1.00000000E+00
  0.00000000E+00  0.00000000E+00  0.00000000E+00  0.00000000E+00  0.00000000E+00
  0.00000000E+00  0.00000000E+00  6.89990666E-02  3.16423961E-01  7.44308291E-01
  1.00000000E+00  0.00000000E+00  0.00000000E+00  0.00000000E+00  0.00000000E+00
  0.00000000E+00  0.00000000E+00  0.00000000E+00  6.89990666E-02  3.16423961E-01
  7.44308291E-01  1.00000000E+00  0.00000000E+00  0.00000000E+00  0.00000000E+00
  0.00000000E+00  0.00000000E+00  0.00000000E+00  0.00000000E+00  6.89990666E-02
  3.16423961E-01  7.44308291E-01  1.00000000E+00  0.00000000E+00  0.00000000E+00
  0.00000000E+00  0.00000000E+00  0.00000000E+00  0.00000000E+00  0.00000000E+00
  0.00000000E+00  0.00000000E+00  0.00000000E+00  0.00000000E+00  0.00000000E+00
  0.00000000E+00  0.00000000E+00  0.00000000E+00  0.00000000E+00  0.00000000E+00
  0.00000000E+00  0.00000000E+00  0.00000000E+00  0.00000000E+00  0.00000000E+00
  0.00000000E+00  0.00000000E+00  0.00000000E+00
Coordinates of each shell                  R   N=          84
  1.34562727E-07  2.65830775E+00 -3.33066907E-16  1.34562727E-07  2.65830775E+00
 -3.33066907E-16  1.34562727E-07  2.65830775E+00 -3.33066907E-16  1.34562727E-07
  2.65830775E+00 -3.33066907E-16  7.18859781E-08  3.38471113E-01 -6.51663635E-08
  7.18859781E-08  3.38471113E-01 -6.51663635E-08  7.18859781E-08  3.38471113E-01
 -6.51663635E-08  7.18859781E-08  3.38471113E-01 -6.51663635E-08 -2.43254724E+00
 -1.16574505E+00 -2.61921374E-08 -2.43254724E+00 -1.16574505E+00 -2.61921374E-08
 -2.43254724E+00 -1.16574505E+00 -2.61921374E-08 -2.43254724E+00 -1.16574505E+00
 -2.61921374E-08  2.43254715E+00 -1.16574522E+00  1.11022302E-16  2.43254715E+00
 -1.16574522E+00  1.11022302E-16  2.43254715E+00 -1.16574522E+00  1.11022302E-16
  2.43254715E+00 -1.16574522E+00  1.11022302E-16 -2.52015330E+00 -2.39005232E+00
 -1.66561141E+00 -2.52015330E+00 -2.39005232E+00 -1.66561141E+00 -2.52015638E+00
 -2.39004728E+00  1.66561482E+00 -2.52015638E+00 -2.39004728E+00  1.66561482E+00
 -4.03767948E+00  1.25926667E-01 -3.23071174E-06 -4.03767948E+00  1.25926667E-01
 -3.23071174E-06  2.52015381E+00 -2.39005137E+00 -1.66561221E+00  2.52015381E+00
 -2.39005137E+00 -1.66561221E+00  4.03767960E+00  1.25926211E-01 -1.32430153E-06
  4.03767960E+00  1.25926211E-01 -1.32430153E-06  2.52015478E+00 -2.39004900E+00
  1.66561384E+00  2.52015478E+00 -2.39004900E+00  1.66561384E+00
Constraint Structure                       R   N=          30
  1.34562727E-07  2.65830775E+00 -3.33066907E-16  7.18859781E-08  3.38471113E-01
 -6.51663635E-08 -2.43254724E+00 -1.16574505E+00 -2.61921374E-08  2.43254715E+00
 -1.16574522E+00  1.11022302E-16 -2.52015330E+00 -2.39005232E+00 -1.66561141E+00
 -2.52015638E+00 -2.39004728E+00  1.66561482E+00 -4.03767948E+00  1.25926667E-01
 -3.23071174E-06  2.52015381E+00 -2.39005137E+00 -1.66561221E+00  4.03767960E+00
  1.25926211E-01 -1.32430153E-06  2.52015478E+00 -2.39004900E+00  1.66561384E+00
Num ILSW                                   I              100
ILSW                                       I   N=         100
           0           1           0           0           2           0
           0           0           0           0           0          -1
           0           0           0           0           0           0
           0           0           0           0           1           0
           1           0           0           0           0           0
           0           0      100000           0          -1           0
           0           0           0           0           0           0
           0           0           0           1           1           0
           0           0           1           0           0           0
           0           0           4          40           0           0
           0           0           0           0           0           0
           0           0           0           0           0           0
           0           0           0           0           0           0
           0           0           0           0           0           0
           0           0           0           0           0           0
           0           0           0           0           0           0
           0           0           0           0
Num RLSW                                   I               40
RLSW                                       R   N=          40
  1.00000000E+00  1.00000000E+00  1.00000000E+00  1.00000000E+00  1.00000000E+00
  0.00000000E+00  0.00000000E+00  1.00000000E+00  0.00000000E+00  0.00000000E+00
  0.00000000E+00  0.00000000E+00  1.00000000E+00  0.00000000E+00  0.00000000E+00
  0.00000000E+00  0.00000000E+00  1.00000000E+00  0.00000000E+00  0.00000000E+00
  0.00000000E+00  0.00000000E+00  1.00000000E+00  0.00000000E+00  0.00000000E+00
  0.00000000E+00  0.00000000E+00  1.00000000E+00  0.00000000E+00  0.00000000E+00
  0.00000000E+00  0.00000000E+00  0.00000000E+00  0.00000000E+00  0.00000000E+00
  0.00000000E+00  0.00000000E+00  0.00000000E+00  1.00000000E+00  1.00000000E+00
MxBond                                     I                4
NBond                                      I   N=          10
           1           3           4           4           1           1
           1           1           1           1
IBond                                      I   N=          40
           2           0           0           0           1           3
           4           0           2           5           6           7
           2           8           9          10           3           0
           0           0           3           0           0           0
           3           0           0           0           4           0
           0           0           4           0           0           0
           4           0           0           0
RBond                                      R   N=          40
  2.00000000E+00  0.00000000E+00  0.00000000E+00  0.00000000E+00  2.00000000E+00
  1.00000000E+00  1.00000000E+00  0.00000000E+00  1.00000000E+00  1.00000000E+00
  1.00000000E+00  1.00000000E+00  1.00000000E+00  1.00000000E+00  1.00000000E+00
  1.00000000E+00  1.00000000E+00  0.00000000E+00  0.00000000E+00  0.00000000E+00
  1.00000000E+00  0.00000000E+00  0.00000000E+00  0.00000000E+00  1.00000000E+00
  0.00000000E+00  0.00000000E+00  0.00000000E+00  1.00000000E+00  0.00000000E+00
  0.00000000E+00  0.00000000E+00  1.00000000E+00  0.00000000E+00  0.00000000E+00
  0.00000000E+00  1.00000000E+00  0.00000000E+00  0.00000000E+00  0.00000000E+00
Virial Ratio                               R      2.002461254492475E+00
SCF Energy                                 R     -1.919597110976217E+02
MP2 Energy                                 R     -1.925239051236705E+02
Total Energy                               R     -1.925239051236705E+02
Post-SCF wavefunction norm                 R      1.537511922912366E+00
RMS Force                                  R      2.916370417581925E-08
RMS Density                                R      5.024904060940319E-10
External E-field                           R   N=          35
  0.00000000E+00  0.00000000E+00  0.00000000E+00  0.00000000E+00  0.00000000E+00
  0.00000000E+00  0.00000000E+00  0.00000000E+00  0.00000000E+00  0.00000000E+00
  0.00000000E+00  0.00000000E+00  0.00000000E+00  0.00000000E+00  0.00000000E+00
  0.00000000E+00  0.00000000E+00  0.00000000E+00  0.00000000E+00  0.00000000E+00
  0.00000000E+00  0.00000000E+00  0.00000000E+00  0.00000000E+00  0.00000000E+00
  0.00000000E+00  0.00000000E+00  0.00000000E+00  0.00000000E+00  0.00000000E+00
  0.00000000E+00  0.00000000E+00  0.00000000E+00  0.00000000E+00  0.00000000E+00
IOpCl                                      I                0
IROHF                                      I                0
Alpha Orbital Energies                     R   N=          72
 -2.05524781E+01 -1.13360110E+01 -1.12365057E+01 -1.12364789E+01 -1.37322920E+00
 -1.04194642E+00 -9.66717035E-01 -7.39652578E-01 -6.40332440E-01 -6.31849550E-01
 -6.21300341E-01 -5.60861979E-01 -5.58567875E-01 -5.35134557E-01 -4.78516725E-01
 -4.11189175E-01  1.57162163E-01  2.22280185E-01  2.81107905E-01  2.92743695E-01
  3.12914261E-01  3.22245205E-01  3.32868594E-01  3.65982226E-01  4.63758477E-01
  4.90646859E-01  6.99902591E-01  7.57642960E-01  7.64554344E-01  7.89884553E-01
  8.05288932E-01  9.17814963E-01  9.51709053E-01  9.52096724E-01  9.96109086E-01
  1.01689799E+00  1.10956757E+00  1.11793330E+00  1.15240953E+00  1.15951213E+00
  1.19133690E+00  1.20917734E+00  1.22322340E+00  1.32021815E+00  1.37629817E+00
  1.40439040E+00  1.67022775E+00  1.67282243E+00  1.69348470E+00  1.82190163E+00
  2.05438209E+00  2.08120538E+00  2.09042560E+00  2.10133782E+00  2.20737294E+00
  2.24035017E+00  2.34122935E+00  2.38914281E+00  2.44362179E+00  2.52804664E+00
  2.53957285E+00  2.69330908E+00  2.74589502E+00  2.81578214E+00  2.92764041E+00
  3.04563026E+00  3.32254304E+00  3.33192725E+00  4.35539343E+00  4.51175525E+00
  4.69516178E+00  4.86052180E+00
Alpha MO coefficients                      R   N=        5184
  9.94699485E-01  2.09208105E-02 -3.41790561E-11 -1.49083955E-03 -2.14140158E-11
  4.55793812E-03 -6.35478694E-12  2.05014821E-05 -2.47100885E-11 -3.87304825E-03
 -3.62236490E-03 -4.17899730E-03  1.14417238E-11  2.90290215E-11  1.67139679E-11
 -7.16675662E-06  4.47737568E-04 -2.08426270E-12 -2.70370392E-05 -5.40611943E-12
 -8.13816261E-05 -6.21422953E-12 -7.00779735E-04  1.65702257E-11 -5.05121369E-05
 -7.41819411E-04 -4.35826714E-05 -1.63176957E-11 -4.42998053E-12 -2.48750414E-11
 -1.99763138E-07  1.73549748E-05 -7.82550250E-06 -2.54432382E-05  5.59416851E-13
 -1.61174362E-04 -1.65625807E-04 -5.80799954E-06 -2.95605998E-11  1.42433464E-05
 -4.68268743E-05 -1.98453821E-05 -2.64933175E-05  4.14469354E-12 -2.78609042E-12
 -1.99763065E-07  1.73549656E-05  7.82549195E-06 -2.54432398E-05  5.72503240E-13
 -1.61174396E-04  1.65625815E-04 -5.80802456E-06 -6.65111566E-12  1.42433728E-05
 -4.68268820E-05 -1.98453814E-05  2.64933101E-05  6.05835717E-13 -3.50632012E-12
  1.31042612E-05 -2.19836869E-05  1.31042787E-05 -2.19837471E-05  5.95871873E-06
 -6.68224152E-05  1.31042676E-05 -2.19837075E-05  5.95871349E-06 -6.68224079E-05
  1.31042662E-05 -2.19837319E-05 -2.58909706E-04  6.59994103E-04 -1.91365389E-12
 -2.65092442E-04 -1.42811287E-11 -3.18048002E-03  7.31470825E-11  1.77128131E-03
  2.93074994E-11  1.99261592E-04 -7.78943068E-05  4.75535995E-04 -3.37263852E-11
 -1.66530473E-11 -1.81072783E-11  9.95848008E-01  2.65416504E-02  1.63759750E-11
  4.98601625E-04  5.16870000E-11 -9.07971208E-03  5.61795624E-11  4.17669849E-03
  4.61659969E-10 -1.62899936E-03 -6.75884109E-04 -2.25219955E-03 -4.99340747E-11
 -1.35189743E-11  4.73890309E-13  3.06359610E-03  2.27005055E-04 -4.98412601E-05
 -1.05250858E-04  2.65703599E-10  3.15909010E-03  1.73474507E-03  4.15398484E-04
 -1.58286667E-09 -3.67501108E-04 -3.56299223E-04 -4.79932960E-05 -2.50908287E-04
 -9.84906311E-11  1.78679008E-10  3.06359682E-03  2.27005002E-04  4.98413283E-05
 -1.05250873E-04  1.37888442E-10  3.15909048E-03 -1.73474524E-03  4.15398616E-04
 -9.32058555E-10 -3.67501095E-04 -3.56299257E-04 -4.79933150E-05  2.50908275E-04
  3.91426983E-11  1.07990267E-10 -1.49919199E-04  1.71724871E-04 -1.49919184E-04
  1.71727592E-04 -5.95137357E-05  1.81289583E-04 -1.49919229E-04  1.71725559E-04
 -5.95137129E-05  1.81289686E-04 -1.49919097E-04  1.71726812E-04 -3.67375395E-10
 -3.30917752E-09  2.18797799E-05  7.73474710E-10 -4.07933230E-12  5.27494026E-09
  5.22169861E-04 -4.20519070E-09 -1.09539826E-12 -6.80260983E-10  1.15263636E-09
 -3.82427324E-09 -7.07503297E-05 -7.08361234E-11 -3.00906443E-12 -8.25947552E-08
  1.50564159E-09  2.11612680E-05 -2.13065860E-09 -1.38279759E-11  7.75292352E-08
 -3.69094260E-03 -1.74710903E-08  2.11534643E-10 -1.06068799E-08 -7.18270539E-09
 -3.16610682E-09 -2.51387121E-04 -6.15472944E-11 -2.91195877E-11  7.04131533E-01
  2.05851153E-02  2.48662437E-04 -1.21039246E-04  4.78119549E-10 -1.22539247E-02
 -1.24065581E-03 -2.76086511E-04 -1.60427686E-09 -1.29669788E-03 -1.31723387E-03
 -1.24143369E-03 -5.38663101E-05  5.41627704E-11 -1.08052130E-10 -7.04106886E-01
 -2.05844119E-02  2.48659623E-04  1.21038927E-04 -2.32751070E-10  1.22535765E-02
 -1.24064985E-03  2.76074910E-04  5.35306925E-10  1.29665024E-03  1.31718567E-03
  1.24138426E-03 -5.38662778E-05  3.18804311E-12  1.98479147E-11  1.73630038E-04
  2.04646079E-03  1.73629868E-04  2.04646204E-03  1.33209857E-04  1.50024798E-03
 -1.73628706E-04 -2.04640340E-03 -1.33206227E-04 -1.50018055E-03 -1.73628806E-04
 -2.04640323E-03 -2.12899535E-05 -1.90550180E-04 -3.80142445E-10  4.36584419E-05
 -6.80416355E-11  3.15154366E-04 -9.12940979E-09 -2.40742446E-04  3.02139646E-10
 -3.95654664E-05  6.50616333E-05 -2.19006674E-04  1.23505578E-09 -1.52668379E-11
 -5.14974258E-11 -4.75034907E-03  8.05697704E-05 -4.00755274E-10 -1.20534971E-04
  3.35133486E-11  4.47755312E-03  6.45044568E-08 -1.03766096E-03 -3.37335191E-10
 -6.04923673E-04 -4.12330721E-04 -1.81457153E-04  4.40660651E-09  1.59276650E-12
 -1.93149808E-11  7.04014321E-01  2.00986056E-02  8.47882257E-05 -1.09450484E-05
  1.80473400E-10 -9.96871959E-03 -2.01173310E-04 -3.21911508E-04  3.03348868E-10
 -1.35856486E-03 -1.37722468E-03 -1.41536771E-03 -1.81214757E-06 -4.00172538E-11
  1.78806854E-11  7.04038971E-01  2.00993263E-02 -8.47970505E-05 -1.09493269E-05
  1.69215293E-10 -9.96914866E-03  2.01217119E-04 -3.21920751E-04 -1.33565727E-10
 -1.35861020E-03 -1.37727078E-03 -1.41541128E-03  1.81404006E-06 -2.26984665E-11
 -1.68054765E-12  3.83170886E-05  1.66017766E-03  3.83171853E-05  1.66017744E-03
  9.99786013E-05  1.91635133E-03  3.83232713E-05  1.66024898E-03  9.99831685E-05
  1.91640368E-03  3.83231877E-05  1.66024966E-03 -1.94091687E-01  4.27329165E-01
 -3.53671217E-09 -1.32363361E-01 -2.84678539E-09  4.03515329E-01 -1.28095680E-09
 -5.58999302E-02 -1.64223646E-09 -3.39360784E-03  1.78998239E-02 -2.81826959E-03
  6.13960136E-10  2.04079368E-11  4.97796018E-10 -1.13820731E-01  2.16732977E-01
  6.38737821E-09  1.65611107E-01  5.61360628E-09  7.52694237E-02 -1.16304356E-09
 -3.47117932E-02 -5.89718188E-10 -1.54622830E-02  3.02256390E-02 -1.64394245E-02
  1.44593576E-09 -2.26481949E-10  1.53132446E-09 -1.80089699E-02  3.41947534E-02
  1.94642680E-02  1.86795594E-02 -2.63172995E-11  7.00959814E-03 -6.65459343E-03
  7.14367264E-03  4.33933115E-10  4.13256649E-03  3.41047563E-03 -4.68212621E-04
  4.73643182E-03  9.62849345E-10 -1.99163104E-09 -1.80089718E-02  3.41947577E-02
 -1.94642690E-02  1.86795629E-02 -1.18349773E-11  7.00959917E-03  6.65459585E-03
  7.14367289E-03  1.12684013E-09  4.13256560E-03  3.41047657E-03 -4.68212848E-04
 -4.73643206E-03 -5.06504439E-10 -1.08358598E-09  6.02102123E-03  1.08209500E-03
  6.02102297E-03  1.08209166E-03  8.49584479E-03 -1.58763997E-03  6.02102217E-03
  1.08209432E-03  8.49584467E-03 -1.58764127E-03  6.02102362E-03  1.08209257E-03
  6.52167928E-02 -1.49776601E-01  4.21698633E-09 -1.69602029E-02  2.50985556E-09
 -1.52150527E-01  2.31796537E-09 -1.14986277E-02 -2.78799293E-09 -2.24086886E-03
 -7.44408390E-04 -4.81884593E-04 -6.56263378E-10 -8.78064111E-11  2.24086475E-10
 -8.77634692E-02  1.80691934E-01  1.93760142E-08 -1.71576949E-01  3.24405369E-09
  1.21075379E-01 -2.31510350E-09 -4.87873826E-02  6.65684816E-09  2.07554357E-02
 -6.53705900E-03 -6.52068407E-03 -3.55442908E-09  3.03488202E-10 -8.39370100E-10
 -1.21378894E-01  2.26069501E-01  4.94124271E-02  7.60768450E-03  9.06026778E-09
  2.04004303E-01  6.05369891E-03 -1.42743616E-03 -6.21980120E-11  8.29116486E-03
  4.13507010E-03  4.93861159E-03  1.83550360E-03 -3.05451093E-09  2.10964453E-09
 -1.21378922E-01  2.26069552E-01 -4.94124453E-02  7.60768861E-03  8.27997769E-09
  2.04004357E-01 -6.05370657E-03 -1.42743914E-03  1.14110473E-09  8.29116573E-03
  4.13507305E-03  4.93861046E-03 -1.83550185E-03 -1.66900600E-10  8.89363203E-10
  7.63409596E-02  1.55932978E-02  7.63409443E-02  1.55932877E-02  6.36877937E-02
  8.29540636E-03  7.63409695E-02  1.55932990E-02  6.36878079E-02  8.29541032E-03
  7.63409703E-02  1.55932914E-02  3.83868356E-09 -9.16440482E-09 -5.44620087E-02
 -4.74252121E-10 -1.17241319E-09 -8.23187510E-09 -2.58841267E-02 -1.65096959E-10
 -1.05714661E-09  4.84758529E-11 -6.14617318E-10 -8.61736865E-11  6.07213083E-03
  1.58288133E-10  1.52814648E-10 -2.75723180E-09  4.78936601E-09 -1.82937123E-01
  9.94330424E-10 -2.92276857E-09  1.08224645E-08 -1.63332866E-02 -6.38536626E-09
 -6.87147281E-11  3.07817507E-09 -9.83011564E-10 -1.58864956E-10  1.63935353E-02
 -1.01340260E-09  4.94520377E-10 -1.38053883E-01  2.54643354E-01 -7.31853769E-03
  8.28420283E-03  1.64308618E-08  2.80530290E-01  3.19673550E-03  1.10157978E-03
  3.70747665E-09  3.63736978E-03  7.48584384E-03  7.19999615E-03 -2.22255654E-03
  2.13465352E-10 -4.64512674E-09  1.38053855E-01 -2.54643302E-01 -7.31852265E-03
 -8.28420209E-03 -1.24495028E-08 -2.80530242E-01  3.19674603E-03 -1.10157503E-03
 -4.58098706E-09 -3.63736995E-03 -7.48584391E-03 -7.19999118E-03 -2.22255866E-03
  2.05227903E-09  1.69649036E-09  9.17762696E-02  2.15940072E-02  9.17763005E-02
  2.15940269E-02  9.79377377E-02  2.39640008E-02 -9.17762536E-02 -2.15940032E-02
 -9.79377177E-02 -2.39639987E-02 -9.17762688E-02 -2.15940148E-02  7.66966128E-02
 -1.79546684E-01 -1.27176609E-08 -2.47751172E-01 -6.01220053E-09 -2.50618005E-01
 -6.84406699E-09 -1.38938908E-01 -6.12090996E-09 -7.42659782E-03  1.67140103E-02
 -4.18385530E-03  1.13018002E-09 -3.05028747E-10  8.70441599E-10 -1.34497202E-01
  2.92457165E-01 -7.74798284E-09 -3.06930893E-02 -7.88925761E-10  2.70203373E-01
 -6.27532053E-09 -7.63661155E-02  5.45502971E-09  1.32798716E-03  2.16476997E-03
 -1.01840971E-02  5.65018500E-10  1.68631943E-10  2.82835570E-10  5.00135438E-02
 -8.92755935E-02  1.76301919E-01  1.01558253E-01 -2.21936042E-08 -1.45658393E-01
  4.82288725E-02  4.30176987E-02 -2.07707540E-08  9.95932245E-03 -5.19075165E-03
 -1.14732937E-02  1.57886140E-02  1.12297293E-09  3.22140960E-09  5.00135532E-02
 -8.92756104E-02 -1.76301915E-01  1.01558276E-01 -7.38717728E-09 -1.45658421E-01
 -4.82288647E-02  4.30177079E-02 -7.40697121E-09  9.95931835E-03 -5.19075215E-03
 -1.14732916E-02 -1.57886196E-02  9.18599387E-10 -1.04521666E-09 -7.94521630E-02
 -4.31178827E-02 -7.94521828E-02 -4.31178877E-02 -8.31463477E-02 -5.25058382E-02
 -7.94521795E-02 -4.31178906E-02 -8.31463683E-02 -5.25058512E-02 -7.94521679E-02
 -4.31178829E-02  4.30112160E-08 -9.90411962E-08  3.18308756E-01 -2.52049104E-07
  5.51486320E-08 -1.70480963E-07  1.96145163E-01 -1.48090661E-07  3.63977730E-08
 -5.41335859E-09  1.81224405E-08 -4.00900892E-09 -2.06864999E-02 -2.47494478E-10
 -4.47866416E-09 -4.30459491E-09  1.86419296E-08  3.09080283E-01  1.95928887E-07
  5.13027598E-08 -2.87761634E-08  1.07774494E-01  2.34053723E-08  2.06159641E-08
 -1.68076985E-09 -5.81547280E-10 -3.03507149E-09  7.43805067E-03 -3.10529726E-09
  1.94081053E-09 -1.59906284E-02  2.40681580E-02 -8.89640595E-02 -2.25702641E-01
  1.53169986E-07  5.74284848E-02 -3.17619230E-02 -1.11225697E-01  7.88965072E-08
 -1.29053481E-02  2.86971816E-05  1.64385253E-02 -6.17569711E-03 -2.39828399E-08
  2.78151611E-08  1.59906055E-02 -2.40681108E-02 -8.89637102E-02  2.25702858E-01
  1.42621001E-09 -5.74284305E-02 -3.17617246E-02  1.11225819E-01  1.17099312E-10
  1.29053517E-02 -2.86893015E-05 -1.64385326E-02 -6.17568254E-03 -9.47439540E-09
 -1.79217489E-08  9.77277354E-02  6.33544491E-02  9.77276455E-02  6.33543857E-02
 -2.90066629E-02 -2.15766604E-02 -9.77277972E-02 -6.33544901E-02  2.90068961E-02
  2.15767816E-02 -9.77276738E-02 -6.33544069E-02 -5.66152995E-02  1.28895440E-01
  2.75607967E-07  3.41124167E-01 -1.09645512E-07  2.33566026E-01  1.71752301E-07
  1.99269389E-01 -6.86471891E-08  5.87662848E-03 -2.37852037E-02  4.95645174E-03
 -1.82966267E-08  4.74285804E-11  1.11495170E-08  1.46213328E-03 -1.43831788E-02
  2.48568635E-07 -2.90948700E-01 -1.43853410E-07  5.26786183E-02  8.51783904E-08
 -4.70861284E-02 -6.68349395E-08  4.88976107E-03 -3.62223549E-03  3.58330419E-03
  4.94114041E-09  6.20801679E-10  1.87014173E-09  1.29060592E-02 -2.39485001E-02
  2.05730916E-01 -1.06058397E-01 -2.49420811E-07 -4.17179668E-02  1.12585684E-01
 -6.20392569E-02 -1.06097466E-07 -1.05073889E-03 -6.95243655E-03  4.53868826E-03
  1.31970343E-02 -3.65573745E-08  7.26822128E-08  1.29060915E-02 -2.39485567E-02
 -2.05731143E-01 -1.06058059E-01 -2.00475773E-07 -4.17180629E-02 -1.12585784E-01
 -6.20390914E-02 -9.51940022E-08 -1.05072572E-03 -6.95243383E-03  4.53866508E-03
 -1.31970489E-02  1.67010378E-08  3.69070712E-08  2.04675742E-02  1.51451763E-02
  2.04669731E-02  1.51447321E-02 -1.46873313E-01 -8.11835434E-02  2.04673119E-02
  1.51449930E-02 -1.46873327E-01 -8.11835415E-02  2.04669706E-02  1.51447271E-02
 -4.81882423E-08  1.26049101E-07 -8.53299311E-08  3.07061003E-07  1.76099379E-01
  1.52611118E-07 -5.21385855E-08  2.04411502E-07  1.15973988E-01  1.21920807E-08
 -1.62591875E-08  1.07108722E-08  5.50491377E-09 -5.05298890E-10 -1.72454579E-02
  2.71714372E-11 -2.34063025E-08 -7.90487303E-08 -2.61611324E-07  1.93401590E-01
  1.42456363E-07 -3.21994477E-08 -4.17403455E-08  8.95833070E-02  3.43344626E-09
 -9.20279630E-09  7.34815466E-09 -3.23984364E-09 -3.91902681E-10  3.01310128E-03
  2.04327284E-08 -3.40091786E-08  1.77812537E-07  1.63218090E-08  2.68447571E-01
 -9.32565941E-08  9.50826555E-08 -2.27177027E-08  1.39873557E-01 -1.78161456E-08
 -6.46183700E-08  7.88180654E-08  5.15480797E-08  5.07060212E-03 -1.91235578E-02
  9.82025719E-09 -1.06372108E-08 -1.75082284E-07 -1.33374455E-07  2.68447491E-01
 -7.00595539E-08 -7.62624053E-08 -7.39625143E-08  1.39873513E-01 -1.24376820E-08