67519                                                                   
Freq      RMP2-FC                                                     6-31G(d)            
Number of atoms                            I                7
Info1-9                                    I   N=           9
          19          17        1002           0           0         100
           6           2           1
Charge                                     I                0
Multiplicity                               I                1
Number of electrons                        I               36
Number of alpha electrons                  I               18
Number of beta electrons                   I               18
Number of basis functions                  I               79
Number of independent functions            I               79
Number of point charges in /Mol/           I                0
Number of translation vectors              I                0
Atomic numbers                             I   N=           7
           7           7           7           7           6           1
           1
Nuclear charges                            R   N=           7
  7.00000000E+00  7.00000000E+00  7.00000000E+00  7.00000000E+00  6.00000000E+00
  1.00000000E+00  1.00000000E+00
Current cartesian coordinates              R   N=          21
 -1.87484591E+00 -5.66932205E-01  9.87785792E-05  3.33278659E-03 -2.23002109E+00
  9.70868546E-05 -1.19222669E+00  1.87091850E+00 -3.04601759E-05  1.32813509E+00
  1.82044194E+00 -1.35172358E-04  1.99102257E+00 -6.43624582E-01 -5.12988790E-05
 -3.71955393E+00 -1.09924868E+00  1.95724415E-04  3.92265158E+00 -1.29985386E+00
 -9.95614384E-05
Force Field                                I                0
Int Atom Types                             I   N=           7
           0           0           0           0           0           0
           0
MM charges                                 R   N=           7
  0.00000000E+00  0.00000000E+00  0.00000000E+00  0.00000000E+00  0.00000000E+00
  0.00000000E+00  0.00000000E+00
Integer atomic weights                     I   N=           7
          14          14          14          14          12           1
           1
Real atomic weights                        R   N=           7
  1.40030740E+01  1.40030740E+01  1.40030740E+01  1.40030740E+01  1.20000000E+01
  1.00782504E+00  1.00782504E+00
Atom fragment info                         I   N=           7
           0           0           0           0           0           0
           0
Atom residue num                           I   N=           7
           0           0           0           0           0           0
           0
Nuclear spins                              I   N=           7
           2           2           2           2           0           1
           1
Nuclear ZEff                               R   N=           7
 -4.55000000E+00 -4.55000000E+00 -4.55000000E+00 -4.55000000E+00 -3.60000000E+00
 -1.00000000E+00 -1.00000000E+00
Nuclear QMom                               R   N=           7
  2.04400000E+00  2.04400000E+00  2.04400000E+00  2.04400000E+00  0.00000000E+00
  0.00000000E+00  0.00000000E+00
Nuclear GFac                               R   N=           7
  4.03761000E-01  4.03761000E-01  4.03761000E-01  4.03761000E-01  0.00000000E+00
  2.79284600E+00  2.79284600E+00
MicOpt                                     I   N=           7
          -1          -1          -1          -1          -1          -1
          -1
Number of contracted shells                I               24
Number of primitive shells                 I               63
Pure/Cartesian d shells                    I                1
Pure/Cartesian f shells                    I                0
Highest angular momentum                   I                2
Largest degree of contraction              I                6
Shell types                                I   N=          24
           0          -1          -1           2           0          -1
          -1           2           0          -1          -1           2
           0          -1          -1           2           0          -1
          -1           2           0           0           0           0
Number of primitives per shell             I   N=          24
           6           3           1           1           6           3
           1           1           6           3           1           1
           6           3           1           1           6           3
           1           1           3           1           3           1
Shell to atom map                          I   N=          24
           1           1           1           1           2           2
           2           2           3           3           3           3
           4           4           4           4           5           5
           5           5           6           6           7           7
Primitive exponents                        R   N=          63
  4.17351146E+03  6.27457911E+02  1.42902093E+02  4.02343293E+01  1.28202129E+01
  4.39043701E+00  1.16263619E+01  2.71627981E+00  7.72218397E-01  2.12031498E-01
  8.00000000E-01  4.17351146E+03  6.27457911E+02  1.42902093E+02  4.02343293E+01
  1.28202129E+01  4.39043701E+00  1.16263619E+01  2.71627981E+00  7.72218397E-01
  2.12031498E-01  8.00000000E-01  4.17351146E+03  6.27457911E+02  1.42902093E+02
  4.02343293E+01  1.28202129E+01  4.39043701E+00  1.16263619E+01  2.71627981E+00
  7.72218397E-01  2.12031498E-01  8.00000000E-01  4.17351146E+03  6.27457911E+02
  1.42902093E+02  4.02343293E+01  1.28202129E+01  4.39043701E+00  1.16263619E+01
  2.71627981E+00  7.72218397E-01  2.12031498E-01  8.00000000E-01  3.04752488E+03
  4.57369518E+02  1.03948685E+02  2.92101553E+01  9.28666296E+00  3.16392696E+00
  7.86827235E+00  1.88128854E+00  5.44249258E-01  1.68714478E-01  8.00000000E-01
  1.87311370E+01  2.82539436E+00  6.40121692E-01  1.61277759E-01  1.87311370E+01
  2.82539436E+00  6.40121692E-01  1.61277759E-01
Contraction coefficients                   R   N=          63
  1.83477216E-03  1.39946270E-02  6.85865518E-02  2.32240873E-01  4.69069948E-01
  3.60455199E-01 -1.14961182E-01 -1.69117479E-01  1.14585195E+00  1.00000000E+00
  1.00000000E+00  1.83477216E-03  1.39946270E-02  6.85865518E-02  2.32240873E-01
  4.69069948E-01  3.60455199E-01 -1.14961182E-01 -1.69117479E-01  1.14585195E+00
  1.00000000E+00  1.00000000E+00  1.83477216E-03  1.39946270E-02  6.85865518E-02
  2.32240873E-01  4.69069948E-01  3.60455199E-01 -1.14961182E-01 -1.69117479E-01
  1.14585195E+00  1.00000000E+00  1.00000000E+00  1.83477216E-03  1.39946270E-02
  6.85865518E-02  2.32240873E-01  4.69069948E-01  3.60455199E-01 -1.14961182E-01
 -1.69117479E-01  1.14585195E+00  1.00000000E+00  1.00000000E+00  1.83473713E-03
  1.40373228E-02  6.88426223E-02  2.32184443E-01  4.67941348E-01  3.62311985E-01
 -1.19332420E-01 -1.60854152E-01  1.14345644E+00  1.00000000E+00  1.00000000E+00
  3.34946043E-02  2.34726953E-01  8.13757326E-01  1.00000000E+00  3.34946043E-02
  2.34726953E-01  8.13757326E-01  1.00000000E+00
P(S=P) Contraction coefficients            R   N=          63
  0.00000000E+00  0.00000000E+00  0.00000000E+00  0.00000000E+00  0.00000000E+00
  0.00000000E+00  6.75797439E-02  3.23907296E-01  7.40895140E-01  1.00000000E+00
  0.00000000E+00  0.00000000E+00  0.00000000E+00  0.00000000E+00  0.00000000E+00
  0.00000000E+00  0.00000000E+00  6.75797439E-02  3.23907296E-01  7.40895140E-01
  1.00000000E+00  0.00000000E+00  0.00000000E+00  0.00000000E+00  0.00000000E+00
  0.00000000E+00  0.00000000E+00  0.00000000E+00  6.75797439E-02  3.23907296E-01
  7.40895140E-01  1.00000000E+00  0.00000000E+00  0.00000000E+00  0.00000000E+00
  0.00000000E+00  0.00000000E+00  0.00000000E+00  0.00000000E+00  6.75797439E-02
  3.23907296E-01  7.40895140E-01  1.00000000E+00  0.00000000E+00  0.00000000E+00
  0.00000000E+00  0.00000000E+00  0.00000000E+00  0.00000000E+00  0.00000000E+00
  6.89990666E-02  3.16423961E-01  7.44308291E-01  1.00000000E+00  0.00000000E+00
  0.00000000E+00  0.00000000E+00  0.00000000E+00  0.00000000E+00  0.00000000E+00
  0.00000000E+00  0.00000000E+00  0.00000000E+00
Coordinates of each shell                  R   N=          72
 -1.87484591E+00 -5.66932205E-01  9.87785792E-05 -1.87484591E+00 -5.66932205E-01
  9.87785792E-05 -1.87484591E+00 -5.66932205E-01  9.87785792E-05 -1.87484591E+00
 -5.66932205E-01  9.87785792E-05  3.33278659E-03 -2.23002109E+00  9.70868546E-05
  3.33278659E-03 -2.23002109E+00  9.70868546E-05  3.33278659E-03 -2.23002109E+00
  9.70868546E-05  3.33278659E-03 -2.23002109E+00  9.70868546E-05 -1.19222669E+00
  1.87091850E+00 -3.04601759E-05 -1.19222669E+00  1.87091850E+00 -3.04601759E-05
 -1.19222669E+00  1.87091850E+00 -3.04601759E-05 -1.19222669E+00  1.87091850E+00
 -3.04601759E-05  1.32813509E+00  1.82044194E+00 -1.35172358E-04  1.32813509E+00
  1.82044194E+00 -1.35172358E-04  1.32813509E+00  1.82044194E+00 -1.35172358E-04
  1.32813509E+00  1.82044194E+00 -1.35172358E-04  1.99102257E+00 -6.43624582E-01
 -5.12988790E-05  1.99102257E+00 -6.43624582E-01 -5.12988790E-05  1.99102257E+00
 -6.43624582E-01 -5.12988790E-05  1.99102257E+00 -6.43624582E-01 -5.12988790E-05
 -3.71955393E+00 -1.09924868E+00  1.95724415E-04 -3.71955393E+00 -1.09924868E+00
  1.95724415E-04  3.92265158E+00 -1.29985386E+00 -9.95614384E-05  3.92265158E+00
 -1.29985386E+00 -9.95614384E-05
Constraint Structure                       R   N=          21
 -1.87484591E+00 -5.66932205E-01  9.87785792E-05  3.33278659E-03 -2.23002109E+00
  9.70868546E-05 -1.19222669E+00  1.87091850E+00 -3.04601759E-05  1.32813509E+00
  1.82044194E+00 -1.35172358E-04  1.99102257E+00 -6.43624582E-01 -5.12988790E-05
 -3.71955393E+00 -1.09924868E+00  1.95724415E-04  3.92265158E+00 -1.29985386E+00
 -9.95614384E-05
Num ILSW                                   I              100
ILSW                                       I   N=         100
           0           1           0           0           2           0
           0           0           0           0           0          -1
           0           0           0           0           0           0
           0           0           0           0           1           0
           1           0           0           0           0           0
           0           0      100000           0          -1           0
           0           0           0           0           0           0
           0           0           0           1           1           0
           0           0           1           0           0           0
           0           0           4          40           0           0
           0           0           0           0           0           0
           0           0           0           0           0           0
           0           0           0           0           0           0
           0           0           0           0           0           0
           0           0           0           0           0           0
           0           0           0           0           0           0
           0           0           0           0
Num RLSW                                   I               40
RLSW                                       R   N=          40
  1.00000000E+00  1.00000000E+00  1.00000000E+00  1.00000000E+00  1.00000000E+00
  0.00000000E+00  0.00000000E+00  1.00000000E+00  0.00000000E+00  0.00000000E+00
  0.00000000E+00  0.00000000E+00  1.00000000E+00  0.00000000E+00  0.00000000E+00
  0.00000000E+00  0.00000000E+00  1.00000000E+00  0.00000000E+00  0.00000000E+00
  0.00000000E+00  0.00000000E+00  1.00000000E+00  0.00000000E+00  0.00000000E+00
  0.00000000E+00  0.00000000E+00  1.00000000E+00  0.00000000E+00  0.00000000E+00
  0.00000000E+00  0.00000000E+00  0.00000000E+00  0.00000000E+00  0.00000000E+00
  0.00000000E+00  0.00000000E+00  0.00000000E+00  1.00000000E+00  1.00000000E+00
MxBond                                     I                3
NBond                                      I   N=           7
           3           2           2           2           3           1
           1
IBond                                      I   N=          21
           2           3           6           1           5           0
           1           4           0           3           5           0
           2           4           7           1           0           0
           5           0           0
RBond                                      R   N=          21
  1.50000000E+00  1.50000000E+00  1.00000000E+00  1.50000000E+00  1.50000000E+00
  0.00000000E+00  1.50000000E+00  1.50000000E+00  0.00000000E+00  1.50000000E+00
  1.50000000E+00  0.00000000E+00  1.50000000E+00  1.50000000E+00  1.00000000E+00
  1.00000000E+00  0.00000000E+00  0.00000000E+00  1.00000000E+00  0.00000000E+00
  0.00000000E+00
Virial Ratio                               R      2.004047580975356E+00
SCF Energy                                 R     -2.567469653230620E+02
MP2 Energy                                 R     -2.575418590299559E+02
Total Energy                               R     -2.575418590299559E+02
Post-SCF wavefunction norm                 R      1.595627193248552E+00
RMS Force                                  R      1.947050622648185E-06
RMS Density                                R      4.850513658841425E-10
External E-field                           R   N=          35
  0.00000000E+00  0.00000000E+00  0.00000000E+00  0.00000000E+00  0.00000000E+00
  0.00000000E+00  0.00000000E+00  0.00000000E+00  0.00000000E+00  0.00000000E+00
  0.00000000E+00  0.00000000E+00  0.00000000E+00  0.00000000E+00  0.00000000E+00
  0.00000000E+00  0.00000000E+00  0.00000000E+00  0.00000000E+00  0.00000000E+00
  0.00000000E+00  0.00000000E+00  0.00000000E+00  0.00000000E+00  0.00000000E+00
  0.00000000E+00  0.00000000E+00  0.00000000E+00  0.00000000E+00  0.00000000E+00
  0.00000000E+00  0.00000000E+00  0.00000000E+00  0.00000000E+00  0.00000000E+00
IOpCl                                      I                0
IROHF                                      I                0
Alpha Orbital Energies                     R   N=          79
 -1.57213246E+01 -1.56856995E+01 -1.56454769E+01 -1.56244603E+01 -1.13133015E+01
 -1.49971619E+00 -1.26471143E+00 -1.18256409E+00 -9.26283010E-01 -8.75187491E-01
 -7.78343153E-01 -6.79448617E-01 -6.49782854E-01 -5.72935450E-01 -5.07392687E-01
 -4.81590432E-01 -4.47456964E-01 -4.11638464E-01  1.16267760E-01  1.94655865E-01
  2.01752884E-01  2.79470337E-01  3.83377438E-01  4.03019042E-01  4.38142773E-01
  4.71491033E-01  6.50782195E-01  7.64751851E-01  7.86753092E-01  8.26745564E-01
  8.55660712E-01  8.91197997E-01  8.94254190E-01  8.96672944E-01  9.25983371E-01
  9.53101515E-01  9.73626190E-01  9.97986056E-01  1.04806319E+00  1.06942555E+00
  1.07513625E+00  1.10970345E+00  1.14952419E+00  1.20593849E+00  1.23941334E+00
  1.34014065E+00  1.54090343E+00  1.55020353E+00  1.59872044E+00  1.62273353E+00
  1.63550570E+00  1.67787154E+00  1.81450094E+00  1.84903472E+00  1.94189968E+00
  2.12911099E+00  2.15317574E+00  2.33945299E+00  2.44593112E+00  2.45327838E+00
  2.50154468E+00  2.56283745E+00  2.60253092E+00  2.65887473E+00  2.70553902E+00
  2.73977085E+00  2.87084291E+00  2.91888351E+00  2.93673389E+00  2.98259524E+00
  3.06131299E+00  3.26319324E+00  3.26529984E+00  3.37385921E+00  3.91096531E+00
  4.01451209E+00  4.32037362E+00  4.42118401E+00  4.57991359E+00
Alpha MO coefficients                      R   N=        6241
  9.94914502E-01  2.48597439E-02  3.21250143E-04  2.77897928E-05 -1.11794136E-08
 -2.25235937E-03 -9.07429295E-04 -2.83323756E-04  4.58592064E-08 -3.37111394E-03
 -3.44923232E-03 -3.43300641E-03  3.83264785E-06 -3.30327581E-09  3.19724723E-10
  5.37487037E-03  2.84876710E-04 -1.97155101E-04  1.39369937E-04  1.72552060E-09
  9.36587211E-04 -2.43565873E-04  3.33265456E-04 -4.38055617E-09 -1.63872767E-04
 -1.56409744E-04 -4.44552689E-05  4.26216827E-05  3.55791620E-09  3.90573913E-09
  1.13758976E-02  3.56342745E-04 -5.86551435E-05 -2.55252584E-04  1.31958474E-08
  1.61187607E-03  2.37058863E-04 -5.71012745E-04  1.42869408E-08 -1.53730447E-04
 -1.98676907E-04 -1.04377773E-04 -2.66931779E-05  3.23722229E-09  5.54941789E-09
 -1.86601395E-04  7.52578251E-06  2.50369206E-05  1.59897933E-05 -1.60696080E-09
 -7.68680345E-04  2.66143371E-04  1.57257949E-04 -1.86703598E-08  3.71768898E-05
  4.33638174E-05  9.79292425E-06  9.88649997E-06 -1.56672149E-09 -1.85420240E-09
 -1.17517636E-05 -1.32968962E-04  3.92998609E-05  2.27021602E-05 -2.49621998E-09
  2.15920692E-04 -4.47110924E-04  1.77794808E-04  9.71574860E-09  8.70457901E-05
  1.22633785E-05 -3.73428030E-05 -9.57708543E-06 -5.18222899E-09 -2.05544615E-09
  1.52253149E-04  1.15703685E-04  1.40639336E-05  2.45484525E-04 -1.15746416E-02
  9.74273540E-06  3.16170693E-05  9.92670983E-05 -5.51849073E-09  1.87046535E-03
  2.00156988E-04 -1.89394262E-07 -7.84504481E-09 -1.30692428E-04 -6.52031016E-04
  3.21015603E-05 -2.44384931E-04  1.79114908E-08  4.27165667E-08 -8.22686398E-04
 -6.56874813E-05  1.08670290E-06 -6.97502662E-05  2.79866294E-09 -7.64668324E-04
  1.26257226E-04 -2.10754076E-04  4.38831022E-09  6.94132606E-05  3.59843299E-05
 -3.97321031E-05 -2.85454651E-06 -4.88172539E-09 -3.53841064E-09  9.95204268E-01
  2.39066459E-02  1.29734416E-03 -2.08871310E-03  3.33205781E-08 -2.63185429E-03
 -1.04502942E-03  1.56912459E-03 -2.21360872E-08 -2.68242982E-03 -2.70239683E-03
 -3.12988425E-03 -3.42829401E-05 -1.98077353E-08 -1.94901659E-08  6.91982763E-03
  4.43248054E-04 -1.18047693E-04  3.55573243E-05  3.27665541E-09  1.12377490E-03
 -1.74606961E-04 -1.62365951E-04  1.39198481E-08 -6.33037140E-04 -1.20474034E-04
 -3.70385652E-06 -5.48279826E-05  3.34187329E-08  8.10102079E-09 -2.11659336E-05
 -2.37047590E-04  4.77779895E-05 -5.09212850E-05  1.69352499E-10  2.28689299E-04
 -7.82650334E-04  1.55287061E-04  2.56383329E-08  1.13938112E-04  1.87893338E-05
 -6.05139964E-05 -6.39266135E-05 -5.67908733E-09 -1.25204820E-09 -3.70189852E-05
 -2.06728840E-04  3.30202850E-05  4.03662374E-04 -5.57010265E-03  1.88032930E-04
  7.31993581E-05 -6.53541931E-05 -2.11785938E-10  1.62321074E-03  7.91872365E-06
 -3.99632135E-05  1.87805417E-09 -4.89890710E-04 -3.27482338E-04  2.58542806E-05
  4.03100933E-04  5.86297433E-09  2.00303535E-09  9.95229883E-01  2.43661831E-02
 -2.65500530E-04  2.36589989E-03 -9.31724422E-08 -3.82297992E-03 -1.99987849E-04
 -2.17588892E-03  1.03150060E-07 -2.75105094E-03 -2.67997379E-03 -3.14632702E-03
  1.35722829E-05 -1.90014776E-08 -2.39400816E-08  7.70692331E-04 -9.54433772E-05
 -6.21147386E-06  5.28685106E-05 -1.99749517E-09  2.64851177E-04  3.37943379E-04
  3.00890463E-05 -1.56785306E-08  5.58861845E-05  2.14828271E-05 -8.22262266E-05
 -8.54245612E-07 -6.31616617E-09 -4.92536506E-09 -7.60189882E-04  2.47934097E-05
  9.81861364E-07  6.44587751E-05 -2.96106087E-09 -1.46816607E-03  3.41135953E-04
  3.90792452E-04 -3.18806431E-08  6.43207143E-05  6.69754981E-05  2.35325558E-05
  2.15211337E-05 -2.43373976E-09 -3.05180897E-09  1.98916872E-05  3.51594369E-04
 -6.55994883E-06 -4.62501136E-05  2.34302648E-09  2.69036110E-03 -1.62989021E-03
  1.57774105E-04  5.74408906E-08 -4.19093747E-04 -2.11807656E-04 -7.24971758E-05
 -2.53430072E-04  2.70522196E-08  1.69802140E-08 -5.97084039E-05 -2.41689265E-04
  4.27412595E-05  3.26059261E-04  2.83599759E-04 -1.19666422E-04 -1.38451611E-05
 -4.35354303E-05  2.66857169E-09  5.35702322E-06  3.24909190E-04 -3.39137862E-04
  4.39483099E-10  1.35606704E-04  2.00907615E-05 -5.01709575E-05  4.08000109E-05
 -1.08295325E-08 -5.25486276E-09  8.28503352E-04  7.70189689E-05 -4.20033708E-05
 -4.90204818E-05  3.95839052E-09 -1.54972099E-03  2.20712406E-05 -5.75708831E-04
  2.44369915E-08  7.79224221E-05  5.33498706E-05  2.91609796E-05 -3.88826902E-06
 -2.16225850E-09 -1.11519907E-09 -7.11417568E-03  1.08798325E-04  1.15609679E-04
  3.44087744E-05 -6.05312497E-09  1.75033960E-03  2.44921590E-04 -3.88783208E-04
  5.89727650E-09 -6.25571379E-04 -7.84877903E-05  3.67644064E-05  6.15630964E-05
  2.99422388E-08  3.36274926E-09  9.95218551E-01  2.44329039E-02 -1.48408689E-03
 -1.75074530E-03  1.40375235E-07 -4.11214520E-03  1.22729289E-03  1.98852889E-03
 -1.40290105E-07 -2.75650785E-03 -2.72206760E-03 -3.15048276E-03 -1.10229766E-05
 -1.80555913E-08 -2.13002464E-08  2.10515435E-05  4.05879295E-04  4.17046219E-07
  5.43349023E-05 -2.34927707E-09  2.75707503E-03 -1.39123671E-03  8.48680929E-04
  1.75371411E-08 -1.34137866E-04 -5.16531223E-04 -6.99345562E-05  1.76427752E-04
 -4.65731237E-09  1.61521214E-08 -4.36751913E-06  9.20890966E-05  4.03375387E-05
  3.08290817E-04  4.52906573E-07  6.81383559E-06  1.10453633E-04 -7.83722620E-05
 -7.68471844E-10  5.53541460E-04  4.31306786E-04 -2.76473173E-04 -6.48788825E-09
  1.12563705E-05 -1.05711028E-05  1.52844114E-05 -1.13548476E-04  4.83425086E-09
  5.55528032E-09 -2.95897358E-04  3.08641266E-04 -2.29032472E-05 -1.95045921E-05
  1.81650658E-09 -4.33847375E-04  2.18811364E-04 -9.47788224E-04  3.26214935E-08
 -3.13360181E-04 -3.59399787E-04  1.88519745E-04 -1.17083346E-04  2.79316855E-08
  3.23990605E-08 -1.24576342E-05 -1.06079401E-04  1.28273281E-04 -1.39816825E-05
 -5.06464784E-09  1.03018600E-03  3.71447502E-04 -3.60282150E-04  1.34791662E-09
  1.09813910E-04 -2.19179503E-05 -4.29374174E-05 -8.03454472E-05 -3.69414840E-09
  2.17989229E-09 -2.79839247E-04  3.17618677E-04  4.80081533E-07  1.31283615E-05
 -7.71334350E-10 -5.69034025E-04  7.18423775E-04  7.09938482E-04 -6.30442761E-08
 -2.29908734E-04 -4.27668355E-04  1.84797866E-04 -6.70542013E-06  2.03539657E-08
  3.23327229E-08  9.95563742E-01  2.70368150E-02 -6.63239673E-04  1.64577069E-04
  1.82627112E-08 -6.53944616E-03 -1.17741222E-03  4.67410572E-04  2.72645197E-08
 -1.64954802E-03 -1.66039810E-03 -2.66250341E-03 -6.64255130E-06 -4.59603835E-08
 -5.06453259E-08  6.32637137E-05  2.72515729E-05 -1.99892297E-04  2.30502804E-03
 -1.29632280E-01  2.78751864E-01  7.91200505E-02  3.03939927E-02 -4.33960241E-06
  1.92126890E-01  3.05151911E-02  1.39112645E-02 -1.75703725E-06  1.64577127E-02
  1.58836435E-02 -1.09525077E-02  1.79424387E-03 -1.31608391E-06 -1.38518032E-06
 -8.70244882E-02  1.79838921E-01 -2.79993817E-02  9.39649888E-02 -2.98514161E-06
  1.43804162E-01  2.13400209E-03  3.57332436E-02 -1.65361449E-06  4.62975259E-03
  1.04676271E-02 -9.08189334E-03 -6.66357578E-03 -3.35796810E-07 -7.21848914E-07
 -1.03467153E-01  2.24293739E-01  4.96463685E-02 -9.86241439E-02  2.05048587E-06
  1.15667656E-01  9.16026135E-03 -2.20149101E-02  5.42796846E-07  8.03740075E-03
  1.51003594E-02 -9.78140967E-03 -1.59321860E-03 -7.94827752E-07 -1.13560459E-06
 -7.66850747E-02  1.55333151E-01 -6.99781139E-02 -5.24943714E-02  5.26279059E-06
  1.43771745E-01 -2.42480507E-02 -3.36221263E-02  2.53696095E-06  1.17763785E-02
  2.86006122E-03 -8.79106196E-03  4.79119701E-03 -1.21598364E-06 -8.05558219E-07
 -5.83856820E-02  1.15163442E-01 -7.02095178E-02  1.73561847E-02  2.01372624E-06
 -1.57860605E-02  4.24665279E-02 -1.48899451E-02 -1.03256059E-06  8.67313710E-03
  6.41832991E-03 -6.47660427E-03  5.13280205E-04 -7.17046196E-07 -6.83503994E-07
  4.56338924E-02  5.64733212E-04  8.88419817E-03 -1.83972491E-02  8.23728291E-02
 -1.78965297E-01 -3.53309414E-02  1.45299993E-01 -4.91027719E-06 -1.87598997E-01
 -1.95972621E-02  3.24884636E-02 -6.46071826E-07 -1.60550560E-02  2.61816941E-03
  5.96026517E-03  1.66247831E-02  2.89918239E-07 -4.74810601E-07  1.14765160E-01
 -2.47397923E-01  5.29345846E-02 -7.37267071E-02  1.11800350E-06 -1.98138921E-01
  1.51100069E-03 -2.34348157E-02  9.58036675E-07 -8.46748214E-03 -5.27175236E-03
  8.08260237E-03  9.61379534E-03  3.36096752E-07  2.92052438E-07 -9.65051163E-02
  2.09018054E-01  1.25904423E-01  6.58517659E-03 -5.58529497E-06  1.93044255E-01
  3.97665263E-02 -2.08732310E-02 -7.94106545E-07  2.28087891E-02 -9.64692655E-03
 -8.87410792E-03 -6.38577264E-03 -1.26911037E-06  3.10952968E-07 -1.25089344E-01
  2.65947632E-01 -9.41476327E-02 -3.56174455E-02  5.59813900E-06  2.25554836E-01
 -1.96244887E-02 -2.91627205E-02  2.14446482E-06  1.60375992E-02 -1.14196999E-03
 -9.60277910E-03  1.81852154E-03 -1.33022799E-06 -5.19347374E-07 -4.80019812E-03
  9.64520430E-03  3.50535261E-02  1.21719635E-01 -6.76251824E-06 -3.15163449E-03
  3.30517777E-04 -9.77142212E-03  4.10132508E-07 -1.13185339E-02  1.20339794E-02
 -7.01299181E-04 -1.81092864E-02  1.28721485E-06  6.24539722E-08 -5.43592731E-02
 -2.52397028E-05  1.11498687E-03 -6.22935673E-04  1.00813616E-01 -2.22889100E-01
  9.65019527E-02 -1.27631668E-01  1.51493285E-06 -2.41177420E-01  2.79234682E-02
 -3.23460658E-02  2.17990680E-07  8.31808940E-04 -1.43137910E-02  5.15838208E-03
 -1.43261984E-02  8.19843259E-07  1.50353457E-06 -9.14422160E-02  1.92607735E-01
  1.02037837E-01  5.81929242E-02 -6.63012022E-06  2.21290128E-01  2.82438845E-02
  4.41340100E-02 -3.04764026E-06  1.52006133E-03  3.74855987E-03 -6.85424748E-03
  1.53148658E-02 -1.04999612E-06 -1.14623514E-06  7.69945069E-02 -1.71929521E-01
  9.16286654E-02  9.26586068E-02 -7.61262292E-06 -1.57683231E-01  9.00490909E-03
  2.66095801E-02 -1.46409359E-06  1.13323456E-02 -1.77978510E-02  4.51826362E-03
 -1.30344168E-02  2.20512156E-07  1.60444808E-06 -7.47778630E-02  1.56820467E-01
  4.65603479E-02 -9.23609680E-02  2.21787329E-06  1.83736694E-01 -4.14742065E-03
 -4.35368427E-02  2.12503806E-06 -1.08169026E-02  1.43372198E-02 -5.67962230E-03
 -4.67761909E-03  4.48832304E-07 -8.39206740E-07 -1.23274628E-01  2.43024015E-01
 -7.60928928E-02  1.07241244E-02  2.47632081E-06  9.59160250E-02  1.55892752E-02
 -4.16670197E-03 -4.29244722E-07  8.69416520E-03  1.21790742E-02 -1.31789941E-02
  3.57846303E-03 -1.15618748E-06 -1.44336132E-06 -8.83139014E-02  1.23641542E-03
  5.00762129E-02  5.20912559E-04  7.19671129E-02 -1.58913209E-01  2.31920169E-01
  1.53123781E-01 -1.56777876E-05 -2.57509180E-01  1.11472900E-01  6.27541057E-02
 -7.11353377E-06 -1.81449874E-02  1.11708764E-02  2.99824278E-03 -6.18877076E-03
  1.27570116E-06 -1.30824904E-07 -6.33268546E-02  1.34714068E-01  1.21925945E-01
  3.15978016E-02 -6.14211245E-06  1.92953072E-01  3.80543226E-02  2.42037802E-02
 -2.52837369E-06 -6.70622731E-03  4.68368242E-03 -4.56255388E-03  1.00632088E-02
 -3.42775109E-07 -8.50475184E-07 -9.14954846E-02  2.06212062E-01  9.07638494E-03
 -1.33254306E-02  2.00386024E-07  2.59669231E-01  5.56104202E-03 -2.48428493E-02
  8.16217419E-07 -4.95335925E-03  4.73780086E-03 -5.90128075E-03 -9.46262236E-04
 -1.70889612E-08 -4.85823248E-07  8.33458654E-02 -1.82695353E-01 -1.63682772E-01
  1.03997592E-01  2.15156541E-06 -2.36418893E-01 -4.84212990E-02  4.50995311E-02
  9.72614950E-09  1.88099532E-02 -1.50472973E-02  1.68645964E-03  8.73164446E-03
 -1.23541241E-06  5.06880694E-07  3.53388987E-02 -7.15394716E-02 -9.56433073E-02
 -2.11264267E-01  1.32517948E-05 -6.87916789E-02 -3.36071434E-03 -2.61685792E-02
  1.29751238E-06  9.20460593E-03 -1.43300584E-02  2.95598941E-03  1.74959356E-02
 -1.06741824E-06  2.14388955E-07 -1.82223214E-01 -2.92516704E-02 -3.79125631E-02
 -1.80109669E-02 -5.76993508E-03  1.07143463E-02 -1.11659493E-01  2.81150239E-01
 -7.49152104E-06  3.05771772E-02 -4.70606852E-02  1.31507897E-01 -3.69737520E-06
 -3.00114351E-03  4.33522603E-03 -6.22336627E-04  1.29955871E-02 -4.53736878E-07
 -7.02746970E-07  3.64216400E-02 -8.01526048E-02  2.38663356E-01  4.96806807E-03
 -9.65013730E-06 -9.87318834E-02  7.20234310E-02 -1.75443843E-03 -2.78221566E-06
 -3.23220635E-03 -2.58136666E-04  4.25355731E-03  2.46271402E-02 -7.44298566E-07
 -7.37316589E-07 -1.26776361E-02  2.94138549E-02 -2.19498694E-01 -1.37565981E-01
  1.49456843E-05  2.24559048E-02 -6.38614006E-02 -3.54889891E-02  4.17961445E-06
 -2.12668717E-02  2.26055931E-02 -6.10446219E-04  1.03478099E-02  5.94668138E-07
 -1.54076254E-06  5.85604944E-02 -1.26523397E-01  1.28453051E-01 -1.15442921E-01
 -2.69515363E-07 -1.81959596E-01  4.92232246E-02 -2.88117596E-02 -8.03703187E-07
 -1.41850586E-02  1.50617313E-02  4.36132386E-03 -4.66855534E-04  9.39633197E-07
 -5.37583774E-07 -1.20573590E-01  2.49383101E-01  7.19179441E-02 -6.73203229E-02
  5.56841732E-08  2.54638857E-01  1.28419218E-02 -1.39658665E-02  9.68585491E-08
  1.22407417E-02  3.42844834E-03 -1.01170233E-02 -5.26044033E-05 -1.03019270E-06
 -6.95408588E-07  1.95395418E-02  5.85980966E-03  1.41524600E-01  5.29757060E-02
 -2.13486782E-02  4.95239677E-02  3.02565677E-01  1.15309386E-01 -1.69176247E-05
  8.93042131E-02  2.04497082E-01  7.96118423E-02 -1.14967097E-05 -8.46674354E-03
  5.65293785E-03 -4.39474834E-03 -3.36100995E-03  3.67186948E-07 -3.32418605E-07
  5.39520838E-02 -1.21054986E-01 -1.20361649E-01  1.64628669E-01 -2.40385350E-06
 -2.08016192E-01 -4.37795467E-02  6.11200985E-02 -9.35769696E-07 -1.19495171E-02
  2.30895752E-02 -4.89535047E-03 -1.45783270E-02  9.60892135E-07 -8.37938828E-07
  5.76638563E-02 -1.29333059E-01 -4.58138488E-02 -2.40447496E-01  1.22101773E-05
 -2.44396442E-01 -1.79056028E-02 -7.41331375E-02  3.94618137E-06 -1.61505970E-02
  2.98747058E-02 -3.11411231E-03 -1.22547575E-02  1.16093961E-06 -1.09858684E-06
  1.09486349E-02 -2.97333425E-02  9.85478993E-02 -2.00070253E-01  4.60780194E-06
 -1.29212820E-02  2.76354177E-02 -9.05099342E-02  2.82484732E-06 -1.67887029E-02
  1.86718538E-02 -3.90906154E-03  9.01300217E-03  2.43578384E-07 -1.53316195E-06
  1.54323311E-02 -2.48260218E-02 -9.63497458E-02  2.06347410E-01 -5.35463872E-06
 -6.34664015E-02 -2.61048266E-02  4.29537398E-02 -8.74478890E-07 -5.19751899E-03
  4.19831451E-03 -4.31995125E-04 -8.64136747E-03  6.05644978E-07  7.44668642E-08
 -1.48271189E-01 -3.84779414E-02 -8.82889670E-02 -4.72271230E-02  8.43825242E-08
 -1.75909365E-07  1.55532016E-05  1.54137747E-05  3.73789359E-01 -4.90797275E-07
  9.98388627E-06  1.00087566E-05  2.43592478E-01  1.00691839E-06  4.50536932E-07
 -1.46812475E-06  8.70356126E-07  1.58901316E-02  5.90835987E-03 -1.02521803E-09
  2.90188396E-08  8.24424221E-06  1.02355094E-05  2.38987647E-01 -1.55509367E-07