
    -----------------------------------------------------------------------
          Psi4: An Open-Source Ab Initio Electronic Structure Package
                               Psi4 1.3.2 release

                         Git: Rev {HEAD} ecbda83 


    R. M. Parrish, L. A. Burns, D. G. A. Smith, A. C. Simmonett,
    A. E. DePrince III, E. G. Hohenstein, U. Bozkaya, A. Yu. Sokolov,
    R. Di Remigio, R. M. Richard, J. F. Gonthier, A. M. James,
    H. R. McAlexander, A. Kumar, M. Saitow, X. Wang, B. P. Pritchard,
    P. Verma, H. F. Schaefer III, K. Patkowski, R. A. King, E. F. Valeev,
    F. A. Evangelista, J. M. Turney, T. D. Crawford, and C. D. Sherrill,
    J. Chem. Theory Comput. 13(7) pp 3185--3197 (2017).
    (doi: 10.1021/acs.jctc.7b00174)


                         Additional Contributions by
    P. Kraus, H. Kruse, M. H. Lechner, M. C. Schieber, R. A. Shaw,
    A. Alenaizan, R. Galvelis, Z. L. Glick, S. Lehtola, and J. P. Misiewicz

    -----------------------------------------------------------------------


    Psi4 started on: Wednesday, 11 November 2020 11:26AM

    Process ID: 47511
    Host:       node37.bme.utexas.edu
    PSIDATADIR: /home/xy3866/psi4conda/share/psi4
    Memory:     500.0 MiB
    Threads:    8
    
  ==> Input File <==

--------------------------------------------------------------------------
#psi4
#
memory 32 gb

molecule  {
0 1
  O       -1.5172650    -0.9302590     0.3397410
  O       -1.1248250     1.1536050    -0.4487800
  C        0.7353610    -0.1875570     0.3681900
  C        1.2675140    -1.2018710    -0.6496400
  C        1.5623690     1.0900120     0.3921910
  C       -0.7032450     0.1210870     0.0433830
  H        0.7409090    -0.6606070     1.3569650
  H        2.3072410    -1.4506340    -0.4222570
  H        1.2308120    -0.7800070    -1.6583810
  H        0.6786320    -2.1214010    -0.6338280
  H        1.5507090     1.5673140    -0.5898900
  H        2.5972890     0.8640450     0.6623340
  H        1.1628250     1.8055600     1.1144870
  H       -2.4138720    -0.6456040     0.0659830
units angstrom
no_reorient  #important for SAPT in psi4, default
symmetry c1  #important for SAPT in psi4, default
}

set PROPERTIES_ORIGIN ["COM"]
properties('MP2/aug-cc-pvtz', properties = ['dipole'])
--------------------------------------------------------------------------

  Memory set to  29.802 GiB by Python driver.
    SCF Algorithm Type (re)set to DF.

*** tstart() called on node37.bme.utexas.edu
*** at Wed Nov 11 11:26:42 2020

   => Loading Basis Set <=

    Name: AUG-CC-PVTZ
    Role: ORBITAL
    Keyword: BASIS
    atoms 1-2  entry O          line   327 file /home/xy3866/psi4conda/share/psi4/basis/aug-cc-pvtz.gbs 
    atoms 3-6  entry C          line   235 file /home/xy3866/psi4conda/share/psi4/basis/aug-cc-pvtz.gbs 
    atoms 7-14 entry H          line    36 file /home/xy3866/psi4conda/share/psi4/basis/aug-cc-pvtz.gbs 


         ---------------------------------------------------------
                                   SCF
               by Justin Turney, Rob Parrish, Andy Simmonett
                          and Daniel G. A. Smith
                              RHF Reference
                        8 Threads,  30517 MiB Core
         ---------------------------------------------------------

  ==> Geometry <==

    Molecular point group: c1
    Full point group: C1

    Geometry (in Angstrom), charge = 0, multiplicity = 1:

       Center              X                  Y                   Z               Mass       
    ------------   -----------------  -----------------  -----------------  -----------------
         O           -1.517264898930    -0.930258957029     0.339740851132    15.994914619570
         O           -1.124824898930     1.153605042971    -0.448780148868    15.994914619570
         C            0.735361101070    -0.187556957029     0.368189851132    12.000000000000
         C            1.267514101070    -1.201870957029    -0.649640148868    12.000000000000
         C            1.562369101070     1.090012042971     0.392190851132    12.000000000000
         C           -0.703244898930     0.121087042971     0.043382851132    12.000000000000
         H            0.740909101070    -0.660606957029     1.356964851132     1.007825032230
         H            2.307241101070    -1.450633957029    -0.422257148868     1.007825032230
         H            1.230812101070    -0.780006957029    -1.658381148868     1.007825032230
         H            0.678632101070    -2.121400957029    -0.633828148868     1.007825032230
         H            1.550709101070     1.567314042971    -0.589890148868     1.007825032230
         H            2.597289101070     0.864045042971     0.662333851132     1.007825032230
         H            1.162825101070     1.805560042971     1.114486851132     1.007825032230
         H           -2.413871898930    -0.645603957029     0.065982851132     1.007825032230

  Running in c1 symmetry.

  Rotational constants: A =      0.16421  B =      0.10331  C =      0.07502 [cm^-1]
  Rotational constants: A =   4923.00461  B =   3097.01699  C =   2249.14025 [MHz]
  Nuclear repulsion =  247.821645327298455

  Charge       = 0
  Multiplicity = 1
  Electrons    = 48
  Nalpha       = 24
  Nbeta        = 24

  ==> Algorithm <==

  SCF Algorithm Type is DF.
  DIIS enabled.
  MOM disabled.
  Fractional occupation disabled.
  Guess Type is SAD.
  Energy threshold   = 1.00e-10
  Density threshold  = 1.00e-10
  Integral threshold = 0.00e+00

  ==> Primary Basis <==

  Basis Set: AUG-CC-PVTZ
    Blend: AUG-CC-PVTZ
    Number of shells: 156
    Number of basis function: 460
    Number of Cartesian functions: 530
    Spherical Harmonics?: true
    Max angular momentum: 3

   => Loading Basis Set <=

    Name: (AUG-CC-PVTZ AUX)
    Role: JKFIT
    Keyword: DF_BASIS_SCF
    atoms 1-2  entry O          line   286 file /home/xy3866/psi4conda/share/psi4/basis/aug-cc-pvtz-jkfit.gbs 
    atoms 3-6  entry C          line   162 file /home/xy3866/psi4conda/share/psi4/basis/aug-cc-pvtz-jkfit.gbs 
    atoms 7-14 entry H          line    70 file /home/xy3866/psi4conda/share/psi4/basis/aug-cc-pvtz-jkfit.gbs 

  ==> Pre-Iterations <==

   -------------------------------------------------------
    Irrep   Nso     Nmo     Nalpha   Nbeta   Ndocc  Nsocc
   -------------------------------------------------------
     A        460     460       0       0       0       0
   -------------------------------------------------------
    Total     460     460      24      24      24       0
   -------------------------------------------------------

  ==> Integral Setup <==

  DFHelper Memory: AOs need 1.599 GiB; user supplied 22.352 GiB. Using in-core AOs.

  ==> MemDFJK: Density-Fitted J/K Matrices <==

    J tasked:                   Yes
    K tasked:                   Yes
    wK tasked:                   No
    OpenMP threads:               8
    Memory [MiB]:             22888
    Algorithm:                 Core
    Schwarz Cutoff:           1E-12
    Mask sparsity (%):       1.7297
    Fitting Condition:        1E-10

   => Auxiliary Basis Set <=

  Basis Set: (AUG-CC-PVTZ AUX)
    Blend: AUG-CC-PVTZ-JKFIT
    Number of shells: 292
    Number of basis function: 992
    Number of Cartesian functions: 1226
    Spherical Harmonics?: true
    Max angular momentum: 4

  Minimum eigenvalue in the overlap matrix is 5.4163536637E-06.
  Using Symmetric Orthogonalization.

  SCF Guess: Superposition of Atomic Densities via on-the-fly atomic UHF.

  ==> Iterations <==

                           Total Energy        Delta E     RMS |[F,P]|

   @DF-RHF iter SAD:  -305.12473763430694   -3.05125e+02   0.00000e+00 
   @DF-RHF iter   1:  -305.74705915589431   -6.22322e-01   1.53451e-03 DIIS
   @DF-RHF iter   2:  -305.93815119644654   -1.91092e-01   8.54710e-04 DIIS
   @DF-RHF iter   3:  -305.99445431782306   -5.63031e-02   1.52330e-04 DIIS
   @DF-RHF iter   4:  -305.99760320175284   -3.14888e-03   7.67189e-05 DIIS
   @DF-RHF iter   5:  -305.99826585985198   -6.62658e-04   1.46675e-05 DIIS
   @DF-RHF iter   6:  -305.99831316374906   -4.73039e-05   6.72562e-06 DIIS
   @DF-RHF iter   7:  -305.99832228936293   -9.12561e-06   2.58184e-06 DIIS
   @DF-RHF iter   8:  -305.99832420826061   -1.91890e-06   1.08131e-06 DIIS
   @DF-RHF iter   9:  -305.99832455537808   -3.47117e-07   2.93246e-07 DIIS
   @DF-RHF iter  10:  -305.99832458122728   -2.58492e-08   7.94995e-08 DIIS
   @DF-RHF iter  11:  -305.99832458285027   -1.62299e-09   2.13749e-08 DIIS
   @DF-RHF iter  12:  -305.99832458295270   -1.02432e-10   5.08898e-09 DIIS
   @DF-RHF iter  13:  -305.99832458295975   -7.04858e-12   1.35902e-09 DIIS
   @DF-RHF iter  14:  -305.99832458296100   -1.25056e-12   5.44678e-10 DIIS
   @DF-RHF iter  15:  -305.99832458296089    1.13687e-13   1.38495e-10 DIIS
   @DF-RHF iter  16:  -305.99832458296055    3.41061e-13   4.32148e-11 DIIS
  Energy and wave function converged.


  ==> Post-Iterations <==

    Orbital Energies [Eh]
    ---------------------

    Doubly Occupied:                                                      

       1A    -20.614425     2A    -20.550399     3A    -11.385430  
       4A    -11.253079     5A    -11.231571     6A    -11.220829  
       7A     -1.458700     8A     -1.355175     9A     -1.097179  
      10A     -0.944198    11A     -0.897057    12A     -0.773063  
      13A     -0.705838    14A     -0.691897    15A     -0.641452  
      16A     -0.610872    17A     -0.601473    18A     -0.560796  
      19A     -0.549269    20A     -0.526161    21A     -0.498276  
      22A     -0.492565    23A     -0.478562    24A     -0.446630  

    Virtual:                                                              

      25A      0.028118    26A      0.034687    27A      0.038661  
      28A      0.042367    29A      0.054883    30A      0.061030  
      31A      0.063032    32A      0.065901    33A      0.093471  
      34A      0.102260    35A      0.113745    36A      0.118476  
      37A      0.124084    38A      0.125730    39A      0.128379  
      40A      0.132785    41A      0.140636    42A      0.146679  
      43A      0.150028    44A      0.154671    45A      0.167538  
      46A      0.171042    47A      0.183586    48A      0.188085  
      49A      0.190948    50A      0.209234    51A      0.224781  
      52A      0.231676    53A      0.240859    54A      0.246995  
      55A      0.256308    56A      0.263962    57A      0.268903  
      58A      0.272212    59A      0.277722    60A      0.298191  
      61A      0.300911    62A      0.310322    63A      0.320804  
      64A      0.325361    65A      0.335862    66A      0.340564  
      67A      0.349160    68A      0.355183    69A      0.361106  
      70A      0.362788    71A      0.370247    72A      0.375331  
      73A      0.384734    74A      0.385382    75A      0.393027  
      76A      0.403264    77A      0.408621    78A      0.419709  
      79A      0.421406    80A      0.429349    81A      0.433924  
      82A      0.436674    83A      0.441880    84A      0.453116  
      85A      0.454493    86A      0.462189    87A      0.466228  
      88A      0.474910    89A      0.483535    90A      0.488094  
      91A      0.495490    92A      0.503304    93A      0.506576  
      94A      0.512339    95A      0.516133    96A      0.534333  
      97A      0.536993    98A      0.539960    99A      0.543736  
     100A      0.573306   101A      0.580429   102A      0.592181  
     103A      0.595520   104A      0.607055   105A      0.608779  
     106A      0.622405   107A      0.626007   108A      0.632683  
     109A      0.648786   110A      0.655811   111A      0.669312  
     112A      0.679835   113A      0.684577   114A      0.723332  
     115A      0.743360   116A      0.756603   117A      0.765299  
     118A      0.777078   119A      0.782493   120A      0.801367  
     121A      0.811593   122A      0.814805   123A      0.823848  
     124A      0.826087   125A      0.837662   126A      0.840446  
     127A      0.857405   128A      0.859850   129A      0.870194  
     130A      0.879291   131A      0.893256   132A      0.900542  
     133A      0.909223   134A      0.912361   135A      0.920601  
     136A      0.924716   137A      0.927514   138A      0.934680  
     139A      0.945491   140A      0.951487   141A      0.960799  
     142A      0.962202   143A      0.978345   144A      0.989062  
     145A      0.997872   146A      1.014201   147A      1.017346  
     148A      1.027244   149A      1.038506   150A      1.048112  
     151A      1.056447   152A      1.058636   153A      1.065577  
     154A      1.077494   155A      1.082716   156A      1.091334  
     157A      1.106547   158A      1.112423   159A      1.115326  
     160A      1.119758   161A      1.137610   162A      1.150826  
     163A      1.163590   164A      1.178661   165A      1.185960  
     166A      1.188620   167A      1.201049   168A      1.207172  
     169A      1.215960   170A      1.229395   171A      1.234361  
     172A      1.251480   173A      1.253781   174A      1.280796  
     175A      1.282199   176A      1.307277   177A      1.310053  
     178A      1.325748   179A      1.345357   180A      1.355988  
     181A      1.359877   182A      1.380477   183A      1.386140  
     184A      1.401193   185A      1.417117   186A      1.432089  
     187A      1.439420   188A      1.445418   189A      1.458634  
     190A      1.462786   191A      1.467779   192A      1.483162  
     193A      1.489167   194A      1.501375   195A      1.518580  
     196A      1.533777   197A      1.537954   198A      1.559228  
     199A      1.577634   200A      1.582543   201A      1.590350  
     202A      1.612720   203A      1.634653   204A      1.648340  
     205A      1.658307   206A      1.667369   207A      1.671531  
     208A      1.689453   209A      1.696634   210A      1.705879  
     211A      1.714400   212A      1.716718   213A      1.733631  
     214A      1.743575   215A      1.750745   216A      1.761210  
     217A      1.775283   218A      1.787809   219A      1.808443  
     220A      1.822390   221A      1.836336   222A      1.840607  
     223A      1.845797   224A      1.879966   225A      1.885442  
     226A      1.911932   227A      1.915639   228A      1.924282  
     229A      1.936115   230A      1.950185   231A      1.955561  
     232A      1.962883   233A      1.964614   234A      1.993728  
     235A      2.004938   236A      2.036318   237A      2.044293  
     238A      2.056000   239A      2.079242   240A      2.099288  
     241A      2.125001   242A      2.132290   243A      2.174831  
     244A      2.200153   245A      2.209146   246A      2.217170  
     247A      2.230378   248A      2.240612   249A      2.247393  
     250A      2.266099   251A      2.277773   252A      2.296879  
     253A      2.304205   254A      2.336805   255A      2.354463  
     256A      2.362608   257A      2.399844   258A      2.413247  
     259A      2.432655   260A      2.458433   261A      2.475617  
     262A      2.485469   263A      2.498798   264A      2.512929  
     265A      2.531626   266A      2.556402   267A      2.574252  
     268A      2.605549   269A      2.616671   270A      2.640130  
     271A      2.653033   272A      2.663665   273A      2.676077  
     274A      2.743231   275A      2.755935   276A      2.781878  
     277A      2.842335   278A      2.850210   279A      2.860409  
     280A      2.880897   281A      2.917151   282A      2.969858  
     283A      3.016860   284A      3.042251   285A      3.067106  
     286A      3.074500   287A      3.094636   288A      3.113324  
     289A      3.201271   290A      3.229764   291A      3.305331  
     292A      3.349193   293A      3.356255   294A      3.380873  
     295A      3.404774   296A      3.449190   297A      3.472763  
     298A      3.479138   299A      3.502009   300A      3.512872  
     301A      3.534282   302A      3.574928   303A      3.594846  
     304A      3.621389   305A      3.628756   306A      3.639849  
     307A      3.668278   308A      3.676430   309A      3.688850  
     310A      3.710463   311A      3.724086   312A      3.742542  
     313A      3.752430   314A      3.768021   315A      3.802482  
     316A      3.806579   317A      3.818654   318A      3.834498  
     319A      3.842398   320A      3.870226   321A      3.883623  
     322A      3.892006   323A      3.908736   324A      3.915993  
     325A      3.954742   326A      3.977792   327A      3.984965  
     328A      3.993220   329A      4.009684   330A      4.036057  
     331A      4.037920   332A      4.060394   333A      4.080857  
     334A      4.096749   335A      4.121183   336A      4.157272  
     337A      4.171892   338A      4.185214   339A      4.196466  
     340A      4.214363   341A      4.235848   342A      4.250227  
     343A      4.265917   344A      4.290285   345A      4.305899  
     346A      4.310802   347A      4.325741   348A      4.363093  
     349A      4.366719   350A      4.370665   351A      4.404014  
     352A      4.432611   353A      4.454352   354A      4.484352  
     355A      4.497077   356A      4.524576   357A      4.538287  
     358A      4.571139   359A      4.576852   360A      4.630143  
     361A      4.646472   362A      4.657318   363A      4.662433  
     364A      4.682017   365A      4.716668   366A      4.736048  
     367A      4.756712   368A      4.813988   369A      4.827772  
     370A      4.842046   371A      4.848898   372A      4.864393  
     373A      4.875729   374A      4.898363   375A      4.912892  
     376A      4.945056   377A      4.980427   378A      5.016581  
     379A      5.030065   380A      5.060780   381A      5.078337  
     382A      5.113747   383A      5.118908   384A      5.131683  
     385A      5.157701   386A      5.205626   387A      5.222629  
     388A      5.247386   389A      5.249876   390A      5.281708  
     391A      5.290871   392A      5.322325   393A      5.360822  
     394A      5.388699   395A      5.390411   396A      5.410089  
     397A      5.459096   398A      5.460994   399A      5.501315  
     400A      5.507735   401A      5.544045   402A      5.553871  
     403A      5.566377   404A      5.620399   405A      5.639676  
     406A      5.663520   407A      5.699064   408A      5.755016  
     409A      5.782324   410A      5.806343   411A      5.853110  
     412A      5.906164   413A      5.929794   414A      5.969539  
     415A      6.057865   416A      6.107449   417A      6.169419  
     418A      6.192317   419A      6.212639   420A      6.228020  
     421A      6.266699   422A      6.294437   423A      6.380379  
     424A      6.446372   425A      6.639983   426A      6.672164  
     427A      6.726326   428A      6.790814   429A      6.806252  
     430A      6.837608   431A      6.868725   432A      6.876164  
     433A      6.901497   434A      6.914713   435A      6.928372  
     436A      7.044538   437A      7.096790   438A      7.230432  
     439A      7.266951   440A      7.305393   441A      7.382801  
     442A      7.403137   443A      7.421970   444A      7.449742  
     445A      7.567666   446A      7.596190   447A      7.646969  
     448A      7.713158   449A      7.728465   450A      7.905479  
     451A      8.018837   452A      8.060823   453A      8.270554  
     454A      8.554287   455A     15.378005   456A     16.076089  
     457A     17.114010   458A     18.143623   459A     18.957658  
     460A     19.449064  

    Final Occupation by Irrep:
              A 
    DOCC [    24 ]

  @DF-RHF Final Energy:  -305.99832458296055

   => Energetics <=

    Nuclear Repulsion Energy =            247.8216453272984552
    One-Electron Energy =                -908.4701493448258134
    Two-Electron Energy =                 354.6501794345667804
    Total Energy =                       -305.9983245829605494

Computation Completed

*** tstop() called on node37.bme.utexas.edu at Wed Nov 11 11:26:58 2020
Module time:
	user time   =     101.76 seconds =       1.70 minutes
	system time =       8.21 seconds =       0.14 minutes
	total time  =         16 seconds =       0.27 minutes
Total time:
	user time   =     101.76 seconds =       1.70 minutes
	system time =       8.21 seconds =       0.14 minutes
	total time  =         16 seconds =       0.27 minutes
   => Loading Basis Set <=

    Name: (AUG-CC-PVTZ AUX)
    Role: RIFIT
    Keyword: DF_BASIS_MP2
    atoms 1-2  entry O          line   264 file /home/xy3866/psi4conda/share/psi4/basis/aug-cc-pvtz-ri.gbs 
    atoms 3-6  entry C          line   148 file /home/xy3866/psi4conda/share/psi4/basis/aug-cc-pvtz-ri.gbs 
    atoms 7-14 entry H          line    30 file /home/xy3866/psi4conda/share/psi4/basis/aug-cc-pvtz-ri.gbs 


*** tstart() called on node37.bme.utexas.edu
*** at Wed Nov 11 11:26:58 2020


  //>>>>>>>>>>>>>>>>>>>>>>>>>>>>>>>>>>>//
  //               DFMP2               //
  //<<<<<<<<<<<<<<<<<<<<<<<<<<<<<<<<<<<//

	 --------------------------------------------------------
	                          DF-MP2                         
	      2nd-Order Density-Fitted Moller-Plesset Theory     
	              RMP2 Wavefunction,   8 Threads             
	                                                         
	        Rob Parrish, Justin Turney, Andy Simmonett,      
	           Ed Hohenstein, and C. David Sherrill          
	 --------------------------------------------------------

   => Auxiliary Basis Set <=

  Basis Set: (AUG-CC-PVTZ AUX)
    Blend: AUG-CC-PVTZ-RI
    Number of shells: 280
    Number of basis function: 1004
    Number of Cartesian functions: 1256
    Spherical Harmonics?: true
    Max angular momentum: 4

	 --------------------------------------------------------
	                 NBF =   460, NAUX =  1004
	 --------------------------------------------------------
	   CLASS    FOCC     OCC    AOCC    AVIR     VIR    FVIR
	   PAIRS       0      24      24     436     436       0
	 --------------------------------------------------------

  DFHelper Memory: AOs need 1.599 GiB; user supplied 22.352 GiB. Using in-core AOs.


         ------------------------------------------------------------
                                     CPHF                           
                                  Rob Parrish                       
         ------------------------------------------------------------

  ==> Geometry <==

    Molecular point group: c1
    Full point group: C1

    Geometry (in Angstrom), charge = 0, multiplicity = 1:

       Center              X                  Y                   Z               Mass       
    ------------   -----------------  -----------------  -----------------  -----------------
         O           -1.517264898930    -0.930258957029     0.339740851132    15.994914619570
         O           -1.124824898930     1.153605042971    -0.448780148868    15.994914619570
         C            0.735361101070    -0.187556957029     0.368189851132    12.000000000000
         C            1.267514101070    -1.201870957029    -0.649640148868    12.000000000000
         C            1.562369101070     1.090012042971     0.392190851132    12.000000000000
         C           -0.703244898930     0.121087042971     0.043382851132    12.000000000000
         H            0.740909101070    -0.660606957029     1.356964851132     1.007825032230
         H            2.307241101070    -1.450633957029    -0.422257148868     1.007825032230
         H            1.230812101070    -0.780006957029    -1.658381148868     1.007825032230
         H            0.678632101070    -2.121400957029    -0.633828148868     1.007825032230
         H            1.550709101070     1.567314042971    -0.589890148868     1.007825032230
         H            2.597289101070     0.864045042971     0.662333851132     1.007825032230
         H            1.162825101070     1.805560042971     1.114486851132     1.007825032230
         H           -2.413871898930    -0.645603957029     0.065982851132     1.007825032230

  Nuclear repulsion =  247.821645327298455
  Reference energy  = -305.998324582960549

  ==> Basis Set <==

  Basis Set: AUG-CC-PVTZ
    Blend: AUG-CC-PVTZ
    Number of shells: 156
    Number of basis function: 460
    Number of Cartesian functions: 530
    Spherical Harmonics?: true
    Max angular momentum: 3

  ==> CGRSolver (by Rob Parrish) <==

   Number of roots    =         1
   Preconditioning    =    JACOBI
   Convergence cutoff =     1E-06
   Maximum iterations =       100

  ==> CPHFRHamiltonian (by Rob Parrish) <== 

  ==> MemDFJK: Density-Fitted J/K Matrices <==

    J tasked:                   Yes
    K tasked:                   Yes
    wK tasked:                   No
    OpenMP threads:               8
    Memory [MiB]:             22888
    Algorithm:                 Core
    Schwarz Cutoff:           1E-12
    Mask sparsity (%):       1.7297
    Fitting Condition:        1E-10

   => Auxiliary Basis Set <=

  Basis Set: (AUG-CC-PVTZ AUX)
    Blend: AUG-CC-PVTZ-JKFIT
    Number of shells: 292
    Number of basis function: 992
    Number of Cartesian functions: 1226
    Spherical Harmonics?: true
    Max angular momentum: 4

  ==> CPHF Iterations <==

  => Iterations <=

             Iter  Converged  Remaining    Residual
  CGR           1          0          1   1.112E-01
  CGR           2          0          1   3.237E-02
  CGR           3          0          1   1.172E-02
  CGR           4          0          1   3.576E-03
  CGR           5          0          1   1.358E-03
  CGR           6          0          1   3.403E-04
  CGR           7          0          1   1.107E-04
  CGR           8          0          1   3.634E-05
  CGR           9          0          1   1.389E-05
  CGR          10          0          1   5.909E-06
  CGR          11          0          1   1.634E-06
  CGR          12          1          0   5.156E-07

    CGRSolver converged.

	-----------------------------------------------------------
	 ==================> DF-MP2 Energies <==================== 
	-----------------------------------------------------------
	 Reference Energy          =    -305.9983245829605494 [Eh]
	 Singles Energy            =      -0.0000000000000000 [Eh]
	 Same-Spin Energy          =      -0.3016555243015588 [Eh]
	 Opposite-Spin Energy      =      -0.9803583259601377 [Eh]
	 Correlation Energy        =      -1.2820138502616967 [Eh]
	 Total Energy              =    -307.2803384332222549 [Eh]
	-----------------------------------------------------------
	 ================> DF-SCS-MP2 Energies <================== 
	-----------------------------------------------------------
	 SCS Same-Spin Scale       =       0.3333333333333333 [-]
	 SCS Opposite-Spin Scale   =       1.2000000000000000 [-]
	 SCS Same-Spin Energy      =      -0.1005518414338529 [Eh]
	 SCS Opposite-Spin Energy  =      -1.1764299911521652 [Eh]
	 SCS Correlation Energy    =      -1.2769818325860181 [Eh]
	 SCS Total Energy          =    -307.2753064155465950 [Eh]
	-----------------------------------------------------------



Properties will be evaluated at   0.000000,   0.000000,   0.000000 [a0]

Properties computed using the MP2 density matrix

  Nuclear Dipole Moment: [e a0]
     X:     7.3507      Y:    -1.3314      Z:    -0.0986

  Electronic Dipole Moment: [e a0]
     X:    -7.0860      Y:     0.7855      Z:     0.3087

  Dipole Moment: [e a0]
     X:     0.2647      Y:    -0.5459      Z:     0.2101     Total:     0.6420

  Dipole Moment: [D]
     X:     0.6727      Y:    -1.3874      Z:     0.5340     Total:     1.6318


*** tstop() called on node37.bme.utexas.edu at Wed Nov 11 11:27:47 2020
Module time:
	user time   =     273.39 seconds =       4.56 minutes
	system time =      31.52 seconds =       0.53 minutes
	total time  =         49 seconds =       0.82 minutes
Total time:
	user time   =     375.37 seconds =       6.26 minutes
	system time =      39.73 seconds =       0.66 minutes
	total time  =         65 seconds =       1.08 minutes

    Psi4 stopped on: Wednesday, 11 November 2020 11:27AM
    Psi4 wall time for execution: 0:01:05.28

*** Psi4 exiting successfully. Buy a developer a beer!
