6365145                                                                 
Freq      RMP2-FC                                                     6-31G(d)            
Number of atoms                            I               16
Info1-9                                    I   N=           9
          28          26        1002           0           0         100
           6           2           1
Charge                                     I                0
Multiplicity                               I                1
Number of electrons                        I               60
Number of alpha electrons                  I               30
Number of beta electrons                   I               30
Number of basis functions                  I              136
Number of independent functions            I              136
Number of point charges in /Mol/           I                0
Number of translation vectors              I                0
Atomic numbers                             I   N=          16
           8           8           6           6           6           6
           6           6           1           1           1           1
           1           1           1           1
Nuclear charges                            R   N=          16
  8.00000000E+00  8.00000000E+00  6.00000000E+00  6.00000000E+00  6.00000000E+00
  6.00000000E+00  6.00000000E+00  6.00000000E+00  1.00000000E+00  1.00000000E+00
  1.00000000E+00  1.00000000E+00  1.00000000E+00  1.00000000E+00  1.00000000E+00
  1.00000000E+00
Current cartesian coordinates              R   N=          48
  2.04470639E+00  2.58545449E+00  9.01642061E-07 -7.34769705E+00  3.77498397E-01
 -5.21876963E-06  4.09688014E+00 -1.47690347E+00 -1.34379682E-05  6.60339947E+00
 -7.00932715E-02  6.79429398E-06  1.83250842E+00  2.68511427E-01  1.80187028E-07
 -7.10531968E-01 -9.58023272E-01  7.59897526E-06 -2.84914694E+00  4.21541672E-01
 -6.21336453E-07 -5.34781378E+00 -7.99707475E-01  4.48172347E-06  3.93413413E+00
 -2.72570877E+00 -1.65142293E+00  3.93412826E+00 -2.72574949E+00  1.65136416E+00
  6.76080263E+00  1.13867236E+00 -1.66432361E+00  6.76081664E+00  1.13860315E+00
  1.66438667E+00  8.18116338E+00 -1.40267410E+00 -2.64082495E-05 -8.00596790E-01
 -3.01691592E+00  1.79563413E-05 -2.76631551E+00  2.47518384E+00 -1.11294289E-05
 -5.33197959E+00 -2.89698783E+00  1.98558725E-05
Force Field                                I                0
Int Atom Types                             I   N=          16
           0           0           0           0           0           0
           0           0           0           0           0           0
           0           0           0           0
MM charges                                 R   N=          16
  0.00000000E+00  0.00000000E+00  0.00000000E+00  0.00000000E+00  0.00000000E+00
  0.00000000E+00  0.00000000E+00  0.00000000E+00  0.00000000E+00  0.00000000E+00
  0.00000000E+00  0.00000000E+00  0.00000000E+00  0.00000000E+00  0.00000000E+00
  0.00000000E+00
Integer atomic weights                     I   N=          16
          16          16          12          12          12          12
          12          12           1           1           1           1
           1           1           1           1
Real atomic weights                        R   N=          16
  1.59949146E+01  1.59949146E+01  1.20000000E+01  1.20000000E+01  1.20000000E+01
  1.20000000E+01  1.20000000E+01  1.20000000E+01  1.00782504E+00  1.00782504E+00
  1.00782504E+00  1.00782504E+00  1.00782504E+00  1.00782504E+00  1.00782504E+00
  1.00782504E+00
Atom fragment info                         I   N=          16
           0           0           0           0           0           0
           0           0           0           0           0           0
           0           0           0           0
Atom residue num                           I   N=          16
           0           0           0           0           0           0
           0           0           0           0           0           0
           0           0           0           0
Nuclear spins                              I   N=          16
           0           0           0           0           0           0
           0           0           1           1           1           1
           1           1           1           1
Nuclear ZEff                               R   N=          16
 -5.60000000E+00 -5.60000000E+00 -3.60000000E+00 -3.60000000E+00 -3.60000000E+00
 -3.60000000E+00 -3.60000000E+00 -3.60000000E+00 -1.00000000E+00 -1.00000000E+00
 -1.00000000E+00 -1.00000000E+00 -1.00000000E+00 -1.00000000E+00 -1.00000000E+00
 -1.00000000E+00
Nuclear QMom                               R   N=          16
  0.00000000E+00  0.00000000E+00  0.00000000E+00  0.00000000E+00  0.00000000E+00
  0.00000000E+00  0.00000000E+00  0.00000000E+00  0.00000000E+00  0.00000000E+00
  0.00000000E+00  0.00000000E+00  0.00000000E+00  0.00000000E+00  0.00000000E+00
  0.00000000E+00
Nuclear GFac                               R   N=          16
  0.00000000E+00  0.00000000E+00  0.00000000E+00  0.00000000E+00  0.00000000E+00
  0.00000000E+00  0.00000000E+00  0.00000000E+00  2.79284600E+00  2.79284600E+00
  2.79284600E+00  2.79284600E+00  2.79284600E+00  2.79284600E+00  2.79284600E+00
  2.79284600E+00
MicOpt                                     I   N=          16
          -1          -1          -1          -1          -1          -1
          -1          -1          -1          -1          -1          -1
          -1          -1          -1          -1
Number of contracted shells                I               48
Number of primitive shells                 I              120
Pure/Cartesian d shells                    I                1
Pure/Cartesian f shells                    I                0
Highest angular momentum                   I                2
Largest degree of contraction              I                6
Shell types                                I   N=          48
           0          -1          -1           2           0          -1
          -1           2           0          -1          -1           2
           0          -1          -1           2           0          -1
          -1           2           0          -1          -1           2
           0          -1          -1           2           0          -1
          -1           2           0           0           0           0
           0           0           0           0           0           0
           0           0           0           0           0           0
Number of primitives per shell             I   N=          48
           6           3           1           1           6           3
           1           1           6           3           1           1
           6           3           1           1           6           3
           1           1           6           3           1           1
           6           3           1           1           6           3
           1           1           3           1           3           1
           3           1           3           1           3           1
           3           1           3           1           3           1
Shell to atom map                          I   N=          48
           1           1           1           1           2           2
           2           2           3           3           3           3
           4           4           4           4           5           5
           5           5           6           6           6           6
           7           7           7           7           8           8
           8           8           9           9          10          10
          11          11          12          12          13          13
          14          14          15          15          16          16
Primitive exponents                        R   N=         120
  5.48467166E+03  8.25234946E+02  1.88046958E+02  5.29645000E+01  1.68975704E+01
  5.79963534E+00  1.55396162E+01  3.59993359E+00  1.01376175E+00  2.70005823E-01
  8.00000000E-01  5.48467166E+03  8.25234946E+02  1.88046958E+02  5.29645000E+01
  1.68975704E+01  5.79963534E+00  1.55396162E+01  3.59993359E+00  1.01376175E+00
  2.70005823E-01  8.00000000E-01  3.04752488E+03  4.57369518E+02  1.03948685E+02
  2.92101553E+01  9.28666296E+00  3.16392696E+00  7.86827235E+00  1.88128854E+00
  5.44249258E-01  1.68714478E-01  8.00000000E-01  3.04752488E+03  4.57369518E+02
  1.03948685E+02  2.92101553E+01  9.28666296E+00  3.16392696E+00  7.86827235E+00
  1.88128854E+00  5.44249258E-01  1.68714478E-01  8.00000000E-01  3.04752488E+03
  4.57369518E+02  1.03948685E+02  2.92101553E+01  9.28666296E+00  3.16392696E+00
  7.86827235E+00  1.88128854E+00  5.44249258E-01  1.68714478E-01  8.00000000E-01
  3.04752488E+03  4.57369518E+02  1.03948685E+02  2.92101553E+01  9.28666296E+00
  3.16392696E+00  7.86827235E+00  1.88128854E+00  5.44249258E-01  1.68714478E-01
  8.00000000E-01  3.04752488E+03  4.57369518E+02  1.03948685E+02  2.92101553E+01
  9.28666296E+00  3.16392696E+00  7.86827235E+00  1.88128854E+00  5.44249258E-01
  1.68714478E-01  8.00000000E-01  3.04752488E+03  4.57369518E+02  1.03948685E+02
  2.92101553E+01  9.28666296E+00  3.16392696E+00  7.86827235E+00  1.88128854E+00
  5.44249258E-01  1.68714478E-01  8.00000000E-01  1.87311370E+01  2.82539436E+00
  6.40121692E-01  1.61277759E-01  1.87311370E+01  2.82539436E+00  6.40121692E-01
  1.61277759E-01  1.87311370E+01  2.82539436E+00  6.40121692E-01  1.61277759E-01
  1.87311370E+01  2.82539436E+00  6.40121692E-01  1.61277759E-01  1.87311370E+01
  2.82539436E+00  6.40121692E-01  1.61277759E-01  1.87311370E+01  2.82539436E+00
  6.40121692E-01  1.61277759E-01  1.87311370E+01  2.82539436E+00  6.40121692E-01
  1.61277759E-01  1.87311370E+01  2.82539436E+00  6.40121692E-01  1.61277759E-01
Contraction coefficients                   R   N=         120
  1.83107443E-03  1.39501722E-02  6.84450781E-02  2.32714336E-01  4.70192898E-01
  3.58520853E-01 -1.10777550E-01 -1.48026263E-01  1.13076702E+00  1.00000000E+00
  1.00000000E+00  1.83107443E-03  1.39501722E-02  6.84450781E-02  2.32714336E-01
  4.70192898E-01  3.58520853E-01 -1.10777550E-01 -1.48026263E-01  1.13076702E+00
  1.00000000E+00  1.00000000E+00  1.83473713E-03  1.40373228E-02  6.88426223E-02
  2.32184443E-01  4.67941348E-01  3.62311985E-01 -1.19332420E-01 -1.60854152E-01
  1.14345644E+00  1.00000000E+00  1.00000000E+00  1.83473713E-03  1.40373228E-02
  6.88426223E-02  2.32184443E-01  4.67941348E-01  3.62311985E-01 -1.19332420E-01
 -1.60854152E-01  1.14345644E+00  1.00000000E+00  1.00000000E+00  1.83473713E-03
  1.40373228E-02  6.88426223E-02  2.32184443E-01  4.67941348E-01  3.62311985E-01
 -1.19332420E-01 -1.60854152E-01  1.14345644E+00  1.00000000E+00  1.00000000E+00
  1.83473713E-03  1.40373228E-02  6.88426223E-02  2.32184443E-01  4.67941348E-01
  3.62311985E-01 -1.19332420E-01 -1.60854152E-01  1.14345644E+00  1.00000000E+00
  1.00000000E+00  1.83473713E-03  1.40373228E-02  6.88426223E-02  2.32184443E-01
  4.67941348E-01  3.62311985E-01 -1.19332420E-01 -1.60854152E-01  1.14345644E+00
  1.00000000E+00  1.00000000E+00  1.83473713E-03  1.40373228E-02  6.88426223E-02
  2.32184443E-01  4.67941348E-01  3.62311985E-01 -1.19332420E-01 -1.60854152E-01
  1.14345644E+00  1.00000000E+00  1.00000000E+00  3.34946043E-02  2.34726953E-01
  8.13757326E-01  1.00000000E+00  3.34946043E-02  2.34726953E-01  8.13757326E-01
  1.00000000E+00  3.34946043E-02  2.34726953E-01  8.13757326E-01  1.00000000E+00
  3.34946043E-02  2.34726953E-01  8.13757326E-01  1.00000000E+00  3.34946043E-02
  2.34726953E-01  8.13757326E-01  1.00000000E+00  3.34946043E-02  2.34726953E-01
  8.13757326E-01  1.00000000E+00  3.34946043E-02  2.34726953E-01  8.13757326E-01
  1.00000000E+00  3.34946043E-02  2.34726953E-01  8.13757326E-01  1.00000000E+00
P(S=P) Contraction coefficients            R   N=         120
  0.00000000E+00  0.00000000E+00  0.00000000E+00  0.00000000E+00  0.00000000E+00
  0.00000000E+00  7.08742682E-02  3.39752839E-01  7.27158577E-01  1.00000000E+00
  0.00000000E+00  0.00000000E+00  0.00000000E+00  0.00000000E+00  0.00000000E+00
  0.00000000E+00  0.00000000E+00  7.08742682E-02  3.39752839E-01  7.27158577E-01
  1.00000000E+00  0.00000000E+00  0.00000000E+00  0.00000000E+00  0.00000000E+00
  0.00000000E+00  0.00000000E+00  0.00000000E+00  6.89990666E-02  3.16423961E-01
  7.44308291E-01  1.00000000E+00  0.00000000E+00  0.00000000E+00  0.00000000E+00
  0.00000000E+00  0.00000000E+00  0.00000000E+00  0.00000000E+00  6.89990666E-02
  3.16423961E-01  7.44308291E-01  1.00000000E+00  0.00000000E+00  0.00000000E+00
  0.00000000E+00  0.00000000E+00  0.00000000E+00  0.00000000E+00  0.00000000E+00
  6.89990666E-02  3.16423961E-01  7.44308291E-01  1.00000000E+00  0.00000000E+00
  0.00000000E+00  0.00000000E+00  0.00000000E+00  0.00000000E+00  0.00000000E+00
  0.00000000E+00  6.89990666E-02  3.16423961E-01  7.44308291E-01  1.00000000E+00
  0.00000000E+00  0.00000000E+00  0.00000000E+00  0.00000000E+00  0.00000000E+00
  0.00000000E+00  0.00000000E+00  6.89990666E-02  3.16423961E-01  7.44308291E-01
  1.00000000E+00  0.00000000E+00  0.00000000E+00  0.00000000E+00  0.00000000E+00
  0.00000000E+00  0.00000000E+00  0.00000000E+00  6.89990666E-02  3.16423961E-01
  7.44308291E-01  1.00000000E+00  0.00000000E+00  0.00000000E+00  0.00000000E+00
  0.00000000E+00  0.00000000E+00  0.00000000E+00  0.00000000E+00  0.00000000E+00
  0.00000000E+00  0.00000000E+00  0.00000000E+00  0.00000000E+00  0.00000000E+00
  0.00000000E+00  0.00000000E+00  0.00000000E+00  0.00000000E+00  0.00000000E+00
  0.00000000E+00  0.00000000E+00  0.00000000E+00  0.00000000E+00  0.00000000E+00
  0.00000000E+00  0.00000000E+00  0.00000000E+00  0.00000000E+00  0.00000000E+00
  0.00000000E+00  0.00000000E+00  0.00000000E+00  0.00000000E+00  0.00000000E+00
Coordinates of each shell                  R   N=         144
  2.04470639E+00  2.58545449E+00  9.01642061E-07  2.04470639E+00  2.58545449E+00
  9.01642061E-07  2.04470639E+00  2.58545449E+00  9.01642061E-07  2.04470639E+00
  2.58545449E+00  9.01642061E-07 -7.34769705E+00  3.77498397E-01 -5.21876963E-06
 -7.34769705E+00  3.77498397E-01 -5.21876963E-06 -7.34769705E+00  3.77498397E-01
 -5.21876963E-06 -7.34769705E+00  3.77498397E-01 -5.21876963E-06  4.09688014E+00
 -1.47690347E+00 -1.34379682E-05  4.09688014E+00 -1.47690347E+00 -1.34379682E-05
  4.09688014E+00 -1.47690347E+00 -1.34379682E-05  4.09688014E+00 -1.47690347E+00
 -1.34379682E-05  6.60339947E+00 -7.00932715E-02  6.79429398E-06  6.60339947E+00
 -7.00932715E-02  6.79429398E-06  6.60339947E+00 -7.00932715E-02  6.79429398E-06
  6.60339947E+00 -7.00932715E-02  6.79429398E-06  1.83250842E+00  2.68511427E-01
  1.80187028E-07  1.83250842E+00  2.68511427E-01  1.80187028E-07  1.83250842E+00
  2.68511427E-01  1.80187028E-07  1.83250842E+00  2.68511427E-01  1.80187028E-07
 -7.10531968E-01 -9.58023272E-01  7.59897526E-06 -7.10531968E-01 -9.58023272E-01
  7.59897526E-06 -7.10531968E-01 -9.58023272E-01  7.59897526E-06 -7.10531968E-01
 -9.58023272E-01  7.59897526E-06 -2.84914694E+00  4.21541672E-01 -6.21336453E-07
 -2.84914694E+00  4.21541672E-01 -6.21336453E-07 -2.84914694E+00  4.21541672E-01
 -6.21336453E-07 -2.84914694E+00  4.21541672E-01 -6.21336453E-07 -5.34781378E+00
 -7.99707475E-01  4.48172347E-06 -5.34781378E+00 -7.99707475E-01  4.48172347E-06
 -5.34781378E+00 -7.99707475E-01  4.48172347E-06 -5.34781378E+00 -7.99707475E-01
  4.48172347E-06  3.93413413E+00 -2.72570877E+00 -1.65142293E+00  3.93413413E+00
 -2.72570877E+00 -1.65142293E+00  3.93412826E+00 -2.72574949E+00  1.65136416E+00
  3.93412826E+00 -2.72574949E+00  1.65136416E+00  6.76080263E+00  1.13867236E+00
 -1.66432361E+00  6.76080263E+00  1.13867236E+00 -1.66432361E+00  6.76081664E+00
  1.13860315E+00  1.66438667E+00  6.76081664E+00  1.13860315E+00  1.66438667E+00
  8.18116338E+00 -1.40267410E+00 -2.64082495E-05  8.18116338E+00 -1.40267410E+00
 -2.64082495E-05 -8.00596790E-01 -3.01691592E+00  1.79563413E-05 -8.00596790E-01
 -3.01691592E+00  1.79563413E-05 -2.76631551E+00  2.47518384E+00 -1.11294289E-05
 -2.76631551E+00  2.47518384E+00 -1.11294289E-05 -5.33197959E+00 -2.89698783E+00
  1.98558725E-05 -5.33197959E+00 -2.89698783E+00  1.98558725E-05
Constraint Structure                       R   N=          48
  2.04470639E+00  2.58545449E+00  9.01642061E-07 -7.34769705E+00  3.77498397E-01
 -5.21876963E-06  4.09688014E+00 -1.47690347E+00 -1.34379682E-05  6.60339947E+00
 -7.00932715E-02  6.79429398E-06  1.83250842E+00  2.68511427E-01  1.80187028E-07
 -7.10531968E-01 -9.58023272E-01  7.59897526E-06 -2.84914694E+00  4.21541672E-01
 -6.21336453E-07 -5.34781378E+00 -7.99707475E-01  4.48172347E-06  3.93413413E+00
 -2.72570877E+00 -1.65142293E+00  3.93412826E+00 -2.72574949E+00  1.65136416E+00
  6.76080263E+00  1.13867236E+00 -1.66432361E+00  6.76081664E+00  1.13860315E+00
  1.66438667E+00  8.18116338E+00 -1.40267410E+00 -2.64082495E-05 -8.00596790E-01
 -3.01691592E+00  1.79563413E-05 -2.76631551E+00  2.47518384E+00 -1.11294289E-05
 -5.33197959E+00 -2.89698783E+00  1.98558725E-05
Num ILSW                                   I              100
ILSW                                       I   N=         100
           0           1           0           0           2           0
           0           0           0           0           0          -1
           0           0           0           0           0           0
           0           0           0           0           1           0
           1           0           0           0           0           0
           0           0      100000           0          -1           0
           0           0           0           0           0           0
           0           0           0           1           1           0
           0           0           1           0           0           0
           0           0           4          40           0           0
           0           0           0           0           0           0
           0           0           0           0           0           0
           0           0           0           0           0           0
           0           0           0           0           0           0
           0           0           0           0           0           0
           0           0           0           0           0           0
           0           0           0           0
Num RLSW                                   I               40
RLSW                                       R   N=          40
  1.00000000E+00  1.00000000E+00  1.00000000E+00  1.00000000E+00  1.00000000E+00
  0.00000000E+00  0.00000000E+00  1.00000000E+00  0.00000000E+00  0.00000000E+00
  0.00000000E+00  0.00000000E+00  1.00000000E+00  0.00000000E+00  0.00000000E+00
  0.00000000E+00  0.00000000E+00  1.00000000E+00  0.00000000E+00  0.00000000E+00
  0.00000000E+00  0.00000000E+00  1.00000000E+00  0.00000000E+00  0.00000000E+00
  0.00000000E+00  0.00000000E+00  1.00000000E+00  0.00000000E+00  0.00000000E+00
  0.00000000E+00  0.00000000E+00  0.00000000E+00  0.00000000E+00  0.00000000E+00
  0.00000000E+00  0.00000000E+00  0.00000000E+00  1.00000000E+00  1.00000000E+00
MxBond                                     I                4
NBond                                      I   N=          16
           1           1           4           4           3           3
           3           3           1           1           1           1
           1           1           1           1
IBond                                      I   N=          64
           5           0           0           0           8           0
           0           0           4           5           9          10
           3          11          12          13           1           3
           6           0           5           7          14           0
           6           8          15           0           2           7
          16           0           3           0           0           0
           3           0           0           0           4           0
           0           0           4           0           0           0
           4           0           0           0           6           0
           0           0           7           0           0           0
           8           0           0           0
RBond                                      R   N=          64
  2.00000000E+00  0.00000000E+00  0.00000000E+00  0.00000000E+00  2.00000000E+00
  0.00000000E+00  0.00000000E+00  0.00000000E+00  1.00000000E+00  1.00000000E+00
  1.00000000E+00  1.00000000E+00  1.00000000E+00  1.00000000E+00  1.00000000E+00
  1.00000000E+00  2.00000000E+00  1.00000000E+00  1.00000000E+00  0.00000000E+00
  1.00000000E+00  2.00000000E+00  1.00000000E+00  0.00000000E+00  2.00000000E+00
  1.00000000E+00  1.00000000E+00  0.00000000E+00  2.00000000E+00  1.00000000E+00
  1.00000000E+00  0.00000000E+00  1.00000000E+00  0.00000000E+00  0.00000000E+00
  0.00000000E+00  1.00000000E+00  0.00000000E+00  0.00000000E+00  0.00000000E+00
  1.00000000E+00  0.00000000E+00  0.00000000E+00  0.00000000E+00  1.00000000E+00
  0.00000000E+00  0.00000000E+00  0.00000000E+00  1.00000000E+00  0.00000000E+00
  0.00000000E+00  0.00000000E+00  1.00000000E+00  0.00000000E+00  0.00000000E+00
  0.00000000E+00  1.00000000E+00  0.00000000E+00  0.00000000E+00  0.00000000E+00
  1.00000000E+00  0.00000000E+00  0.00000000E+00  0.00000000E+00
Virial Ratio                               R      2.002738178243842E+00
SCF Energy                                 R     -3.815625649535168E+02
MP2 Energy                                 R     -3.826785841188880E+02
Total Energy                               R     -3.826785841188880E+02
Post-SCF wavefunction norm                 R      1.656467355033936E+00
RMS Force                                  R      6.429288348221389E-07
RMS Density                                R      9.755635310821550E-10
External E-field                           R   N=          35
  0.00000000E+00  0.00000000E+00  0.00000000E+00  0.00000000E+00  0.00000000E+00
  0.00000000E+00  0.00000000E+00  0.00000000E+00  0.00000000E+00  0.00000000E+00
  0.00000000E+00  0.00000000E+00  0.00000000E+00  0.00000000E+00  0.00000000E+00
  0.00000000E+00  0.00000000E+00  0.00000000E+00  0.00000000E+00  0.00000000E+00
  0.00000000E+00  0.00000000E+00  0.00000000E+00  0.00000000E+00  0.00000000E+00
  0.00000000E+00  0.00000000E+00  0.00000000E+00  0.00000000E+00  0.00000000E+00
  0.00000000E+00  0.00000000E+00  0.00000000E+00  0.00000000E+00  0.00000000E+00
IOpCl                                      I                0
IROHF                                      I                0
Alpha Orbital Energies                     R   N=         136
 -2.05802994E+01 -2.05710063E+01 -1.13539823E+01 -1.13515952E+01 -1.12810905E+01
 -1.12765466E+01 -1.12553289E+01 -1.12279353E+01 -1.39191679E+00 -1.39047105E+00
 -1.11049440E+00 -1.06733150E+00 -9.51241545E-01 -8.76241886E-01 -7.97990493E-01
 -7.52045127E-01 -6.92272834E-01 -6.80679783E-01 -6.43590063E-01 -6.32077707E-01
 -6.24534157E-01 -5.70237580E-01 -5.49867902E-01 -5.40977626E-01 -5.32087934E-01
 -5.26250394E-01 -4.98251326E-01 -4.45873187E-01 -4.29916375E-01 -3.98204208E-01
  4.12049916E-02  1.75278242E-01  2.20968109E-01  2.38700841E-01  2.40640699E-01
  2.72688495E-01  3.00191424E-01  3.04684369E-01  3.04867676E-01  3.13275318E-01
  3.47905928E-01  3.72242195E-01  3.85948404E-01  4.33812867E-01  4.71401738E-01
  4.97001089E-01  5.43410283E-01  5.80494475E-01  7.13405534E-01  7.17017112E-01
  7.29010286E-01  7.30355486E-01  7.74125245E-01  7.76427046E-01  7.91402779E-01
  8.47280661E-01  8.54162820E-01  8.84414378E-01  9.04407449E-01  9.09121366E-01
  9.31868558E-01  9.94061320E-01  1.00067404E+00  1.00675363E+00  1.03588160E+00
  1.06960784E+00  1.09119069E+00  1.10219380E+00  1.11249229E+00  1.13118854E+00
  1.14404178E+00  1.16667075E+00  1.17015704E+00  1.18927214E+00  1.21002081E+00
  1.23336951E+00  1.28287230E+00  1.31382777E+00  1.32378324E+00  1.32806130E+00
  1.35806824E+00  1.40628802E+00  1.45212696E+00  1.55894078E+00  1.56611138E+00
  1.57042329E+00  1.59336236E+00  1.65465808E+00  1.75997411E+00  1.81882146E+00
  1.83964212E+00  1.85038204E+00  1.85594669E+00  1.98223227E+00  2.03584545E+00
  2.04680521E+00  2.05768305E+00  2.09067958E+00  2.09934310E+00  2.11280495E+00
  2.15258452E+00  2.20477490E+00  2.25749610E+00  2.26655226E+00  2.28193352E+00
  2.32346092E+00  2.37245075E+00  2.39269631E+00  2.40119125E+00  2.51514914E+00
  2.56085780E+00  2.62711768E+00  2.64101932E+00  2.64144165E+00  2.68777322E+00
  2.70794380E+00  2.71161662E+00  2.73310569E+00  2.90321992E+00  2.94235451E+00
  2.95309867E+00  3.03678888E+00  3.14044323E+00  3.14707505E+00  3.29542849E+00
  3.32611771E+00  3.39686652E+00  3.48096267E+00  4.26208380E+00  4.35253632E+00
  4.48961776E+00  4.57323292E+00  4.61896004E+00  4.75180215E+00  4.81242651E+00
  4.95878543E+00
Alpha MO coefficients                      R   N=       18496
  1.78864010E-05  7.91133588E-06  1.77536206E-07 -9.20751830E-07 -1.64391279E-11
 -3.87206395E-05 -1.22793225E-05  1.10551085E-05  1.28182100E-10  4.75337680E-06
  2.54645397E-06  7.18287314E-06  2.55034028E-06  1.15925409E-11 -2.36534771E-11
  9.94711193E-01  2.08906956E-02  1.31206005E-03 -7.67135879E-04  6.27727669E-09
  4.52734519E-03 -2.22138004E-05 -2.00937510E-06  6.38528131E-12 -3.66265558E-03
 -3.78649257E-03 -4.17842781E-03 -1.35575434E-04  1.38910031E-09 -3.40074526E-09
  8.29048883E-07  2.66747269E-06 -2.90917673E-06 -1.04571185E-06 -4.56570931E-11
 -6.49997104E-06  9.88171532E-06 -1.62956336E-06  5.43748449E-10  3.92834543E-06
 -7.01828201E-07  2.31786426E-06  1.02876438E-06  9.80422020E-12 -2.75684633E-12
  1.07019517E-06  5.31389844E-06 -1.37118352E-06  9.80477034E-07  9.68862581E-12
 -2.20167662E-05  1.80150934E-05 -5.91601060E-06 -2.09967996E-10 -4.97723031E-07
  1.77873447E-06  1.67774865E-06 -3.83713428E-07 -1.31454133E-11  3.21461968E-11
  2.97271871E-06  1.29952286E-05 -1.33921012E-06  5.75766855E-07  3.73892935E-12
 -1.49906163E-04  1.09645798E-04  5.94564773E-05 -5.05323972E-10  5.90259718E-07
  4.54089270E-06  5.70446740E-06  7.71521147E-07  3.11389715E-13  8.59616053E-12
  2.48843490E-06  2.17715252E-05 -2.45962854E-05  7.58864527E-06 -4.00044392E-11
  2.23333170E-05  2.05851350E-04  7.50970758E-05 -3.48135837E-10 -5.86649187E-06
  1.23982638E-05  6.34536979E-06 -1.40089413E-05  5.80665231E-11 -3.50136723E-11
 -8.63924935E-07  4.16380247E-06  1.78955121E-05 -1.07999539E-05  9.34776898E-11
 -6.27747257E-05  5.12882595E-05  1.65934231E-05 -1.34228573E-10 -5.99723754E-05
  4.08152719E-05 -1.83973120E-05  3.97633520E-05 -2.87761013E-10 -3.73539976E-10
 -4.36642733E-06  4.73311509E-04  3.03928118E-05 -1.86206136E-05  1.27234012E-10
 -2.68963736E-04  5.50026772E-04 -2.91791858E-04  2.51940673E-09 -5.82274673E-04
 -2.31394213E-04 -3.59481904E-05  3.50470678E-04 -2.88685108E-09  1.86062702E-09
  1.23216104E-06  1.34368752E-06  1.23215076E-06  1.34302302E-06  1.94856108E-06
  2.16842407E-06  1.94853867E-06  2.16856027E-06 -2.91424922E-07 -7.09198527E-06
  1.74212580E-05  1.23442096E-05 -7.43899181E-07 -1.09147022E-05 -3.48589042E-05
 -1.22505589E-04  9.94696090E-01  2.08947555E-02 -1.53638297E-04 -1.48815437E-03
 -6.30537722E-10  4.63835624E-03 -1.81319320E-06  1.99043202E-05  2.98816481E-11
 -3.88940784E-03 -3.64919049E-03 -4.18885088E-03  2.44795374E-05 -1.37842453E-09
  4.16352996E-10 -1.69876019E-05 -4.74717135E-06  5.92317370E-07 -4.61476382E-07
  2.75314995E-12  5.06144341E-05  1.36772190E-05  3.73354371E-06 -2.02347707E-11
 -2.67490159E-06 -4.66582825E-06  1.32392379E-06  1.64138457E-07 -7.66069307E-12
  4.78523221E-11 -5.04486002E-06 -8.59619910E-06  1.20353242E-05 -2.46987207E-05
 -2.50547320E-11 -6.14427462E-05  1.46449885E-04 -5.02512131E-06  2.62763176E-10
  2.32758142E-05 -5.52380931E-05 -2.79891722E-05  2.04453343E-05 -7.71746012E-11
 -7.70117384E-11  2.00942105E-06  1.64539441E-05 -9.80687040E-06  1.58618774E-05
  8.06325524E-10 -3.63851707E-05  9.07488660E-05 -1.27181212E-05 -3.58663854E-09
 -1.43706046E-06 -9.80937487E-06  6.51032713E-08 -8.36196253E-06 -3.07312928E-10
 -1.11896642E-10 -7.70034630E-06  4.60834182E-04 -8.97287272E-06 -1.90814449E-05
  1.63485478E-10 -1.62732708E-04 -2.15245776E-05 -7.12946985E-04 -8.18703106E-10
 -6.55010190E-05 -7.31706298E-04 -5.07398309E-05 -7.08063284E-05 -6.30167859E-12
 -1.78301418E-10 -1.49012488E-06 -6.08467782E-06 -2.09673015E-05 -2.87925810E-05
  6.31854490E-11  1.04909940E-04 -2.94662708E-04  1.98067517E-04 -3.95621241E-10
  4.09060764E-05 -4.53562384E-05 -2.12529853E-05 -4.94735187E-05 -3.75072451E-11
  1.29021457E-10 -1.68069293E-06 -1.55522878E-07 -4.43232523E-06  4.85723626E-06
 -1.34882108E-11 -1.30519123E-04 -2.53452127E-04  1.72146641E-04 -1.38874877E-09
 -1.32774527E-05 -1.98351500E-05 -6.53089959E-07  2.46322469E-05 -2.23454521E-10
  2.05176924E-10  2.03318411E-06  1.06944177E-05 -4.26014082E-07  2.22163483E-06
 -2.58682591E-11 -1.10448594E-04 -1.81457058E-05 -1.14123015E-04  7.78404313E-10
  2.16341218E-07 -2.59122007E-06  5.99067436E-06 -4.35816261E-06  1.83876622E-11
  5.80628561E-11  4.58165097E-06 -2.86547180E-05  4.58130048E-06 -2.86540747E-05
  2.36910961E-05 -3.36541353E-05  2.36902536E-05 -3.36468647E-05 -4.92511555E-06
 -4.82063755E-05  2.47532791E-05  6.15296270E-05  2.25829619E-05 -1.64822338E-04
 -2.74899607E-06 -4.87660866E-05 -1.82838841E-04  9.61384382E-04 -3.38314322E-05
 -2.69106674E-04 -3.38457331E-10 -5.18632024E-03  3.31247026E-04  2.25857174E-03
  1.08511139E-09  4.07867363E-04  5.49377736E-05  6.64527873E-04 -7.17875803E-05
  1.19381247E-09 -1.47716835E-10 -1.55063502E-05 -6.58214171E-05 -8.19672116E-06
  2.10793377E-06  5.42253900E-11  3.29247027E-04  7.60111982E-05 -7.59313115E-05
  1.75049011E-10 -3.52800109E-05 -3.63623445E-05 -5.81557010E-05 -1.05964196E-05