033_PO4H3 Gaussian SP Calculation on g2-node38.bme.utexas.edu           
Freq      RMP2-FC                                                     6-31G(d)            
Number of atoms                            I                8
Info1-9                                    I   N=           9
          19          18        1002           0           0         100
           6           2           1
Charge                                     I                0
Multiplicity                               I                1
Number of electrons                        I               50
Number of alpha electrons                  I               25
Number of beta electrons                   I               25
Number of basis functions                  I               85
Number of independent functions            I               85
Number of point charges in /Mol/           I                0
Number of translation vectors              I                0
Atomic numbers                             I   N=           8
          15           8           8           8           8           1
           1           1
Nuclear charges                            R   N=           8
  1.50000000E+01  8.00000000E+00  8.00000000E+00  8.00000000E+00  8.00000000E+00
  1.00000000E+00  1.00000000E+00  1.00000000E+00
Current cartesian coordinates              R   N=          24
 -1.61935269E-01 -1.69356220E-01 -1.65100424E-01 -1.36753343E+00  1.59290040E+00
  2.04581671E+00  1.73317623E+00  1.83286421E+00 -1.47636988E+00 -2.05829340E+00
 -1.51332027E+00 -1.70624369E+00  1.86718923E+00 -1.98879143E+00  1.16955792E+00
  8.22488267E-01  3.24300415E+00 -2.23287104E+00  3.24435272E+00 -1.04410821E+00
  1.94560917E+00 -3.03412094E+00  9.52224148E-01  2.50167978E+00
Force Field                                I                0
Int Atom Types                             I   N=           8
           0           0           0           0           0           0
           0           0
MM charges                                 R   N=           8
  0.00000000E+00  0.00000000E+00  0.00000000E+00  0.00000000E+00  0.00000000E+00
  0.00000000E+00  0.00000000E+00  0.00000000E+00
Integer atomic weights                     I   N=           8
          31          16          16          16          16           1
           1           1
Real atomic weights                        R   N=           8
  3.09737634E+01  1.59949146E+01  1.59949146E+01  1.59949146E+01  1.59949146E+01
  1.00782504E+00  1.00782504E+00  1.00782504E+00
Atom fragment info                         I   N=           8
           0           0           0           0           0           0
           0           0
Atom residue num                           I   N=           8
           0           0           0           0           0           0
           0           0
Nuclear spins                              I   N=           8
           1           0           0           0           0           1
           1           1
Nuclear ZEff                               R   N=           8
 -1.29400000E+01 -5.60000000E+00 -5.60000000E+00 -5.60000000E+00 -5.60000000E+00
 -1.00000000E+00 -1.00000000E+00 -1.00000000E+00
Nuclear QMom                               R   N=           8
  0.00000000E+00  0.00000000E+00  0.00000000E+00  0.00000000E+00  0.00000000E+00
  0.00000000E+00  0.00000000E+00  0.00000000E+00
Nuclear GFac                               R   N=           8
  1.13160000E+00  0.00000000E+00  0.00000000E+00  0.00000000E+00  0.00000000E+00
  2.79284600E+00  2.79284600E+00  2.79284600E+00
MicOpt                                     I   N=           8
          -1          -1          -1          -1          -1          -1
          -1          -1
Number of contracted shells                I               27
Number of primitive shells                 I               73
Pure/Cartesian d shells                    I                1
Pure/Cartesian f shells                    I                0
Highest angular momentum                   I                2
Largest degree of contraction              I                6
Shell types                                I   N=          27
           0          -1          -1          -1           2           0
          -1          -1           2           0          -1          -1
           2           0          -1          -1           2           0
          -1          -1           2           0           0           0
           0           0           0
Number of primitives per shell             I   N=          27
           6           6           3           1           1           6
           3           1           1           6           3           1
           1           6           3           1           1           6
           3           1           1           3           1           3
           1           3           1
Shell to atom map                          I   N=          27
           1           1           1           1           1           2
           2           2           2           3           3           3
           3           4           4           4           4           5
           5           5           5           6           6           7
           7           8           8
Primitive exponents                        R   N=          73
  1.94133000E+04  2.90942000E+03  6.61364000E+02  1.85759000E+02  5.91943000E+01
  2.00310000E+01  3.39478000E+02  8.10101000E+01  2.58780000E+01  9.45221000E+00
  3.66566000E+00  1.46746000E+00  2.15623000E+00  7.48997000E-01  2.83145000E-01
  9.98317000E-02  5.50000000E-01  5.48467166E+03  8.25234946E+02  1.88046958E+02
  5.29645000E+01  1.68975704E+01  5.79963534E+00  1.55396162E+01  3.59993359E+00
  1.01376175E+00  2.70005823E-01  8.00000000E-01  5.48467166E+03  8.25234946E+02
  1.88046958E+02  5.29645000E+01  1.68975704E+01  5.79963534E+00  1.55396162E+01
  3.59993359E+00  1.01376175E+00  2.70005823E-01  8.00000000E-01  5.48467166E+03
  8.25234946E+02  1.88046958E+02  5.29645000E+01  1.68975704E+01  5.79963534E+00
  1.55396162E+01  3.59993359E+00  1.01376175E+00  2.70005823E-01  8.00000000E-01
  5.48467166E+03  8.25234946E+02  1.88046958E+02  5.29645000E+01  1.68975704E+01
  5.79963534E+00  1.55396162E+01  3.59993359E+00  1.01376175E+00  2.70005823E-01
  8.00000000E-01  1.87311370E+01  2.82539436E+00  6.40121692E-01  1.61277759E-01
  1.87311370E+01  2.82539436E+00  6.40121692E-01  1.61277759E-01  1.87311370E+01
  2.82539436E+00  6.40121692E-01  1.61277759E-01
Contraction coefficients                   R   N=          73
  1.85159892E-03  1.42061917E-02  6.99994593E-02  2.40078860E-01  4.84761718E-01
  3.35199805E-01 -2.78217010E-03 -3.60499014E-02 -1.16631004E-01  9.68328036E-02
  6.14418023E-01  4.03798015E-01 -2.52924114E-01  3.28518447E-02  1.08125476E+00
  1.00000000E+00  1.00000000E+00  1.83107443E-03  1.39501722E-02  6.84450781E-02
  2.32714336E-01  4.70192898E-01  3.58520853E-01 -1.10777550E-01 -1.48026263E-01
  1.13076702E+00  1.00000000E+00  1.00000000E+00  1.83107443E-03  1.39501722E-02
  6.84450781E-02  2.32714336E-01  4.70192898E-01  3.58520853E-01 -1.10777550E-01
 -1.48026263E-01  1.13076702E+00  1.00000000E+00  1.00000000E+00  1.83107443E-03
  1.39501722E-02  6.84450781E-02  2.32714336E-01  4.70192898E-01  3.58520853E-01
 -1.10777550E-01 -1.48026263E-01  1.13076702E+00  1.00000000E+00  1.00000000E+00
  1.83107443E-03  1.39501722E-02  6.84450781E-02  2.32714336E-01  4.70192898E-01
  3.58520853E-01 -1.10777550E-01 -1.48026263E-01  1.13076702E+00  1.00000000E+00
  1.00000000E+00  3.34946043E-02  2.34726953E-01  8.13757326E-01  1.00000000E+00
  3.34946043E-02  2.34726953E-01  8.13757326E-01  1.00000000E+00  3.34946043E-02
  2.34726953E-01  8.13757326E-01  1.00000000E+00
P(S=P) Contraction coefficients            R   N=          73
  0.00000000E+00  0.00000000E+00  0.00000000E+00  0.00000000E+00  0.00000000E+00
  0.00000000E+00  4.56461619E-03  3.36935719E-02  1.39754883E-01  3.39361717E-01
  4.50920624E-01  2.38585801E-01 -1.77653127E-02  2.74058196E-01  7.85421563E-01
  1.00000000E+00  0.00000000E+00  0.00000000E+00  0.00000000E+00  0.00000000E+00
  0.00000000E+00  0.00000000E+00  0.00000000E+00  7.08742682E-02  3.39752839E-01
  7.27158577E-01  1.00000000E+00  0.00000000E+00  0.00000000E+00  0.00000000E+00
  0.00000000E+00  0.00000000E+00  0.00000000E+00  0.00000000E+00  7.08742682E-02
  3.39752839E-01  7.27158577E-01  1.00000000E+00  0.00000000E+00  0.00000000E+00
  0.00000000E+00  0.00000000E+00  0.00000000E+00  0.00000000E+00  0.00000000E+00
  7.08742682E-02  3.39752839E-01  7.27158577E-01  1.00000000E+00  0.00000000E+00
  0.00000000E+00  0.00000000E+00  0.00000000E+00  0.00000000E+00  0.00000000E+00
  0.00000000E+00  7.08742682E-02  3.39752839E-01  7.27158577E-01  1.00000000E+00
  0.00000000E+00  0.00000000E+00  0.00000000E+00  0.00000000E+00  0.00000000E+00
  0.00000000E+00  0.00000000E+00  0.00000000E+00  0.00000000E+00  0.00000000E+00
  0.00000000E+00  0.00000000E+00  0.00000000E+00
Coordinates of each shell                  R   N=          81
 -1.61935269E-01 -1.69356220E-01 -1.65100424E-01 -1.61935269E-01 -1.69356220E-01
 -1.65100424E-01 -1.61935269E-01 -1.69356220E-01 -1.65100424E-01 -1.61935269E-01
 -1.69356220E-01 -1.65100424E-01 -1.61935269E-01 -1.69356220E-01 -1.65100424E-01
 -1.36753343E+00  1.59290040E+00  2.04581671E+00 -1.36753343E+00  1.59290040E+00
  2.04581671E+00 -1.36753343E+00  1.59290040E+00  2.04581671E+00 -1.36753343E+00
  1.59290040E+00  2.04581671E+00  1.73317623E+00  1.83286421E+00 -1.47636988E+00
  1.73317623E+00  1.83286421E+00 -1.47636988E+00  1.73317623E+00  1.83286421E+00
 -1.47636988E+00  1.73317623E+00  1.83286421E+00 -1.47636988E+00 -2.05829340E+00
 -1.51332027E+00 -1.70624369E+00 -2.05829340E+00 -1.51332027E+00 -1.70624369E+00
 -2.05829340E+00 -1.51332027E+00 -1.70624369E+00 -2.05829340E+00 -1.51332027E+00
 -1.70624369E+00  1.86718923E+00 -1.98879143E+00  1.16955792E+00  1.86718923E+00
 -1.98879143E+00  1.16955792E+00  1.86718923E+00 -1.98879143E+00  1.16955792E+00
  1.86718923E+00 -1.98879143E+00  1.16955792E+00  8.22488267E-01  3.24300415E+00
 -2.23287104E+00  8.22488267E-01  3.24300415E+00 -2.23287104E+00  3.24435272E+00
 -1.04410821E+00  1.94560917E+00  3.24435272E+00 -1.04410821E+00  1.94560917E+00
 -3.03412094E+00  9.52224148E-01  2.50167978E+00 -3.03412094E+00  9.52224148E-01
  2.50167978E+00
Constraint Structure                       R   N=          24
 -1.61935269E-01 -1.69356220E-01 -1.65100424E-01 -1.36753343E+00  1.59290040E+00
  2.04581671E+00  1.73317623E+00  1.83286421E+00 -1.47636988E+00 -2.05829340E+00
 -1.51332027E+00 -1.70624369E+00  1.86718923E+00 -1.98879143E+00  1.16955792E+00
  8.22488267E-01  3.24300415E+00 -2.23287104E+00  3.24435272E+00 -1.04410821E+00
  1.94560917E+00 -3.03412094E+00  9.52224148E-01  2.50167978E+00
Num ILSW                                   I              100
ILSW                                       I   N=         100
           0           1           0           0           2           0
           0           0           0           0           0          -1
           0           0           0           0           0           0
           0           0           0           0           1           0
           1           0           0           0           0           0
           0           0      100000           0          -1           0
           0           0           0           0           0           0
           0           0           0           1           1           0
           0           0           1           0           0           0
           0           0           4          40           0           0
           0           0           0           0           0           0
           0           0           0           0           0           0
           0           0           0           0           0           0
           0           0           0           0           0           0
           0           0           0           0           0           0
           0           0           0           0           0           0
           0           0           0           0
Num RLSW                                   I               40
RLSW                                       R   N=          40
  1.00000000E+00  1.00000000E+00  1.00000000E+00  1.00000000E+00  1.00000000E+00
  0.00000000E+00  0.00000000E+00  1.00000000E+00  0.00000000E+00  0.00000000E+00
  0.00000000E+00  0.00000000E+00  1.00000000E+00  0.00000000E+00  0.00000000E+00
  0.00000000E+00  0.00000000E+00  1.00000000E+00  0.00000000E+00  0.00000000E+00
  0.00000000E+00  0.00000000E+00  1.00000000E+00  0.00000000E+00  0.00000000E+00
  0.00000000E+00  0.00000000E+00  1.00000000E+00  0.00000000E+00  0.00000000E+00
  0.00000000E+00  0.00000000E+00  0.00000000E+00  0.00000000E+00  0.00000000E+00
  0.00000000E+00  0.00000000E+00  0.00000000E+00  1.00000000E+00  1.00000000E+00
MxBond                                     I                4
NBond                                      I   N=           8
           4           2           2           1           2           1
           1           1
IBond                                      I   N=          32
           2           3           4           5           1           8
           0           0           1           6           0           0
           1           0           0           0           1           7
           0           0           3           0           0           0
           5           0           0           0           2           0
           0           0
RBond                                      R   N=          32
  1.00000000E+00  1.00000000E+00  2.00000000E+00  1.00000000E+00  1.00000000E+00
  1.00000000E+00  0.00000000E+00  0.00000000E+00  1.00000000E+00  1.00000000E+00
  0.00000000E+00  0.00000000E+00  2.00000000E+00  0.00000000E+00  0.00000000E+00
  0.00000000E+00  1.00000000E+00  1.00000000E+00  0.00000000E+00  0.00000000E+00
  1.00000000E+00  0.00000000E+00  0.00000000E+00  0.00000000E+00  1.00000000E+00
  0.00000000E+00  0.00000000E+00  0.00000000E+00  1.00000000E+00  0.00000000E+00
  0.00000000E+00  0.00000000E+00
Virial Ratio                               R      2.002599224553372E+00
SCF Energy                                 R     -6.420115280449536E+02
MP2 Energy                                 R     -6.428425504139249E+02
Total Energy                               R     -6.428425504139249E+02
Post-SCF wavefunction norm                 R      1.571841532218307E+00
RMS Force                                  R      1.566848773149334E-06
RMS Density                                R      1.339797798650800E-09
External E-field                           R   N=          35
  0.00000000E+00  0.00000000E+00  0.00000000E+00  0.00000000E+00  0.00000000E+00
  0.00000000E+00  0.00000000E+00  0.00000000E+00  0.00000000E+00  0.00000000E+00
  0.00000000E+00  0.00000000E+00  0.00000000E+00  0.00000000E+00  0.00000000E+00
  0.00000000E+00  0.00000000E+00  0.00000000E+00  0.00000000E+00  0.00000000E+00
  0.00000000E+00  0.00000000E+00  0.00000000E+00  0.00000000E+00  0.00000000E+00
  0.00000000E+00  0.00000000E+00  0.00000000E+00  0.00000000E+00  0.00000000E+00
  0.00000000E+00  0.00000000E+00  0.00000000E+00  0.00000000E+00  0.00000000E+00
IOpCl                                      I                0
IROHF                                      I                0
Alpha Orbital Energies                     R   N=          85
 -8.01365991E+01 -2.06290401E+01 -2.06264492E+01 -2.06231556E+01 -2.05342737E+01
 -7.65681208E+00 -5.55548529E+00 -5.55520695E+00 -5.55436945E+00 -1.46350487E+00
 -1.39200194E+00 -1.38936143E+00 -1.30500251E+00 -8.66696967E-01 -7.71882429E-01
 -7.60969020E-01 -6.73234687E-01 -6.54439297E-01 -6.09418551E-01 -5.89072757E-01
 -5.81867190E-01 -5.54368420E-01 -5.38116170E-01 -4.76350319E-01 -4.71546288E-01
  1.65387722E-01  2.12257457E-01  2.16838561E-01  2.88302175E-01  3.15166186E-01
  3.18652740E-01  3.74620274E-01  4.63603424E-01  5.04842386E-01  5.26597569E-01
  5.86343060E-01  7.70515323E-01  8.49081669E-01  1.00344492E+00  1.01797927E+00
  1.02351658E+00  1.06713069E+00  1.13542453E+00  1.13818789E+00  1.17966069E+00
  1.20617185E+00  1.23040898E+00  1.25747899E+00  1.27375195E+00  1.28145733E+00
  1.33702648E+00  1.40460339E+00  1.43141083E+00  1.46819468E+00  1.50201005E+00
  1.53765244E+00  1.56476493E+00  1.61094120E+00  1.65559731E+00  1.78201884E+00
  1.96543310E+00  1.97839778E+00  1.98838221E+00  2.01007115E+00  2.04261070E+00
  2.06050590E+00  2.10954262E+00  2.11501170E+00  2.28371135E+00  2.32121528E+00
  2.37631867E+00  2.47668837E+00  2.50723684E+00  2.62521083E+00  2.67404778E+00
  2.76145034E+00  2.83945337E+00  2.97465604E+00  2.99764541E+00  3.19090939E+00
  3.84282462E+00  3.99767012E+00  4.09748086E+00  4.23176079E+00  4.26053834E+00
Alpha MO coefficients                      R   N=        7225
  9.96428245E-01  1.35003523E-02  3.27092106E-05  2.64506018E-05  2.90350653E-05
 -2.19576668E-02  6.89161016E-06 -9.33689203E-06 -7.64648547E-06  1.99393527E-03
 -7.05325347E-05  3.96856802E-05 -4.93970965E-06  7.44516655E-03  7.47624273E-03
  7.48361183E-03 -1.59758093E-05 -2.56869888E-05 -1.16398758E-05 -1.78976590E-05
 -9.62219160E-05 -4.37086612E-06  6.02427196E-05  4.91914206E-05  8.31788670E-04
  2.04383860E-05 -3.08471375E-04 -2.51954819E-04 -4.18404467E-05 -1.07456790E-04
 -1.43106813E-04  5.79278377E-05  3.35481264E-05 -7.30513941E-05 -2.10263073E-05
 -1.09112072E-04  6.93160559E-05  4.03088166E-05 -2.23185971E-05  8.96582046E-04
 -3.38961523E-04 -1.81617230E-04  1.15475467E-04 -1.20296460E-04 -1.10870932E-04
 -9.57790747E-05 -8.99225429E-05  5.93004178E-05  2.97057169E-05 -8.92120440E-06
 -1.21259043E-04 -1.20245776E-04 -8.02352307E-05 -9.43630138E-05  7.60058213E-04
  3.65016075E-04  2.41699558E-04  2.87414132E-04 -7.78651796E-05 -4.78140566E-05
 -5.51702603E-05 -4.49637465E-05 -5.42016612E-05 -3.72689731E-05 -2.25434831E-05
 -1.19096030E-04  4.85465646E-05 -6.67820587E-05  3.44011318E-05  9.38990781E-04
 -2.07121541E-04  3.30598405E-04 -1.49051405E-04 -1.21495176E-04 -1.20472010E-04
 -1.01317180E-04  8.70376393E-05 -3.35509469E-05  5.77154590E-05 -6.84785429E-05
 -1.89935182E-04 -5.53195694E-05 -1.72057301E-04 -7.79525140E-05 -2.03900168E-04
  1.21730570E-05 -5.46615888E-05 -4.10699355E-05 -4.57785714E-05  2.81368726E-05
  2.79888374E-04  2.41625119E-04  2.64840795E-04 -1.74799056E-04 -4.28162339E-04
 -5.65301342E-04 -6.00253764E-05 -3.06829346E-05  4.70540068E-08  5.25790968E-05
 -3.96707480E-05  1.41252509E-04 -9.65848067E-05 -1.12284747E-04 -2.69376937E-03
 -8.77606147E-05 -1.84936044E-05  8.51864287E-09  1.51969602E-06  1.76380556E-04
  6.47862299E-05 -2.54880991E-05  4.52235026E-05 -4.00909859E-05 -1.21445828E-05
 -4.93301023E-05 -2.14319598E-05  1.62099512E-05  1.19136219E-05  9.94596744E-01
  2.11411654E-02 -1.16528782E-03  1.79847245E-04 -5.35935483E-06  4.44270104E-03
  5.59817620E-04 -1.20261032E-04  4.68523069E-05 -4.18387148E-03 -4.22885925E-03
 -4.08717720E-03 -2.22684000E-05  1.95965698E-05  1.40668429E-04 -5.87408464E-05
  5.64796506E-05 -1.35859591E-05  1.25336550E-05  1.58524595E-05 -2.59375995E-04
  7.10620227E-05 -6.01504637E-05 -2.53106364E-05  6.33868263E-05  4.20696967E-05
  4.96923825E-05 -9.75745997E-06  1.19159097E-05  6.50378982E-06 -1.23406488E-03
 -6.13185853E-05  5.50451455E-06  5.73293992E-06  1.91049872E-06  3.01898141E-04
 -7.89888538E-05 -2.49622712E-05 -1.82608682E-05 -1.48880682E-05 -5.87278799E-05
 -2.86754107E-05 -2.32941343E-05  1.34798353E-07  3.95004578E-05  3.94678914E-04
 -2.24064442E-04  2.89814582E-05  7.02689087E-05  3.30144416E-05 -1.12544221E-04
  1.29395281E-05 -4.47523682E-05  3.05884456E-05 -3.90292047E-05 -4.62956538E-05
  3.31437157E-04 -1.84356550E-04  2.17713105E-04  2.58921647E-04 -6.62068772E-04
 -3.80718179E-04 -4.76849489E-04 -3.13818505E-04 -5.50218072E-05 -1.59781843E-05
  6.92839151E-05 -8.85808981E-05 -1.23991262E-04  1.39421636E-04  9.94596967E-01
  2.11012826E-02 -5.79368975E-04 -9.33137006E-04 -4.24409906E-04  4.52508751E-03
  3.71663851E-04  4.33866917E-04  1.71110051E-04 -4.21627071E-03 -4.14136690E-03
 -4.15800915E-03 -2.41225070E-05  1.16692772E-04 -9.72510492E-05  2.66346067E-03
 -7.04438597E-06 -1.64663588E-05  1.22147502E-05 -1.08203263E-05  4.56858633E-04
  4.89070610E-05 -1.25586026E-04  8.23987200E-05 -7.80588690E-05 -4.62240126E-05
 -7.59740911E-05  1.57767418E-05  3.27005889E-05 -6.23938320E-06 -7.84086704E-05
  7.72392529E-05  9.07869626E-06 -1.50154019E-05 -1.63046991E-06 -3.72545302E-04
  6.92789956E-06  3.84802566E-05 -2.67779013E-05  7.19982861E-05  5.75709805E-05
  4.71132838E-05  1.25929068E-05  8.61462999E-06 -1.27494255E-05 -2.22129189E-03
 -7.35467593E-05  4.40028458E-07 -1.69869404E-05 -1.37832203E-06  1.62220861E-04
 -1.64873590E-05  1.09279439E-04 -5.02108760E-05 -1.21393912E-05  1.06185071E-05
  6.71159845E-06  1.09162398E-05  1.16155553E-05 -2.30851433E-05  3.05125866E-05
  9.07783138E-05 -2.82728651E-05  1.66341232E-04  3.98608369E-04 -2.23866676E-04
  1.20223396E-05 -6.74121004E-05 -4.79418383E-05  3.29964508E-05 -3.27128323E-05
  2.59579540E-04  3.05602528E-04 -2.05155475E-04  2.18761816E-04 -2.81542854E-04
  3.34611026E-05  5.40159313E-04 -7.54478335E-06  5.35563741E-05 -3.43146056E-05
 -3.45033707E-05 -1.44335714E-04  1.00319030E-04 -9.91798484E-05  2.22756979E-03
  9.46309080E-05 -2.92191273E-07  1.85541741E-05 -1.26196825E-05 -2.18373670E-04
 -5.54310616E-05 -5.48754344E-05  3.19394658E-05  1.50462812E-05  2.40694207E-05
  3.91596261E-05  2.52734686E-05  1.22239830E-06  1.09720321E-05  1.22794429E-03
  3.49228183E-05 -7.84576831E-06  1.89302758E-05 -7.09113161E-07 -3.11986260E-05
  1.44318282E-05 -1.33217063E-05 -6.19587599E-05 -5.83853172E-06 -3.89511110E-05
 -3.26171585E-05  2.05322426E-05 -4.44932054E-06  2.11076669E-05 -8.54936749E-05
 -6.54778400E-05  6.22961149E-06  1.70824512E-05  1.59425432E-06  4.25302095E-04
  4.37413786E-05 -2.22492331E-05  5.12772369E-05 -4.96535735E-05 -5.20563141E-05
 -3.75742379E-05  1.60086334E-05 -1.44438785E-05  9.41857178E-06  9.94603857E-01
  2.11716773E-02  1.17827754E-04  1.20833098E-03  2.43116356E-05  4.30459361E-03
 -7.76792819E-05 -6.02406881E-04 -2.08126954E-05 -4.20667996E-03 -4.16087221E-03
 -4.07535781E-03  2.00962721E-05 -1.44350412E-04  2.00123281E-05  3.99531421E-05
 -1.28626625E-04  4.01898613E-04 -2.51631436E-04 -1.95776013E-05  4.38418805E-05
  2.05620661E-05 -8.02378531E-05  1.32141640E-06  2.02270351E-06 -1.15930712E-06
  8.21683044E-04 -1.90645599E-04 -1.38255569E-04 -1.38851129E-04 -2.04631247E-04
  4.00041843E-04  2.49203152E-04  2.87451230E-04 -2.23951741E-04 -2.00487950E-04
 -2.13601123E-04 -2.96682991E-05 -1.99655065E-05 -1.99479855E-05  1.10608635E-04
  5.09581065E-05  1.64640068E-05  7.35331590E-06  1.30574022E-05 -2.24942042E-04
 -6.78195896E-05  1.48557811E-05  7.38919394E-06  4.12980679E-05  2.41986850E-05
  1.89427349E-05 -5.53118058E-06 -8.40763710E-06 -1.90259023E-05  8.91660149E-05
  5.18091090E-05  8.17954710E-06  6.01238111E-06  1.61323607E-05 -2.54032508E-04
  1.03236595E-06  5.17079766E-06 -5.94376297E-05  2.72135548E-05  3.25449010E-05
  4.88347757E-05 -1.05743505E-05 -9.23876173E-06 -1.11761135E-05  9.94683034E-01
  2.08513841E-02  8.84089718E-04  6.54790358E-04  7.40359737E-04  4.32812795E-03
 -2.82272523E-04 -2.00338236E-04 -2.27433372E-04 -4.01250851E-03 -4.01108491E-03
 -4.01144715E-03 -6.87192605E-06 -4.58630881E-06  4.63173914E-06  7.02210376E-05
  1.54255506E-05 -1.76279706E-07  8.12177341E-06  3.05924871E-06 -4.10728511E-05
  5.41628679E-05 -5.66129719E-05  2.77576631E-05 -2.35486457E-05  6.76039133E-06
 -1.32559727E-05  2.61157549E-06 -2.06797131E-05  5.73211275E-07  1.62381564E-06
  1.79429402E-05  2.56214389E-05 -1.47148315E-04 -9.67397170E-06  4.32831985E-05
 -2.76166484E-01  1.03100522E+00  4.15788924E-03  2.94427844E-03  3.33219733E-03
  1.57377058E-02  9.96271720E-04  7.76720374E-04  8.14198827E-04 -2.44989597E-03
 -6.59605972E-05 -1.78879697E-04 -1.33289748E-04 -7.32001463E-04 -6.54268594E-04
 -7.80431360E-04 -1.85846320E-04 -2.47462794E-04 -2.01350324E-04 -1.16394366E-04
  4.79011440E-04  1.53914289E-04 -3.25474890E-04 -3.62268073E-04 -1.28596612E-03
 -4.05242309E-05  4.82600545E-04  3.98768462E-04  8.19511318E-05  2.60150877E-04
  3.04151637E-04 -9.57854533E-05 -2.79908295E-05  1.50840337E-04 -1.19175391E-04
  5.32635184E-04 -3.72777899E-04 -3.17319078E-04  2.07640392E-04 -1.47603922E-03
  5.71254916E-04  2.83074881E-04 -2.20966523E-04  2.89279321E-04  2.29203296E-04
  1.98597694E-04  1.83948305E-04 -9.63342628E-05 -1.57608495E-05 -3.37285566E-04
  5.78229756E-04  7.35242876E-04  5.12144744E-04  5.94105697E-04 -3.60261522E-04
  1.10725801E-05  2.99878423E-05  9.38584324E-06  4.36254826E-04  1.87413319E-04
  2.53653526E-04  3.97912976E-04  4.49447925E-04  3.14098636E-04 -1.16978268E-04
  5.78581895E-04 -3.41418239E-04  3.78068449E-04 -2.31162518E-04 -1.65121780E-03
  2.39250092E-04 -5.95760593E-04  1.85723297E-04  2.96714857E-04  2.86763318E-04
  2.64786586E-04 -1.91467359E-04  6.24860737E-05 -1.21204806E-04  1.44171282E-04
  3.49804511E-04  1.43082593E-04  4.24131293E-04  1.54798516E-04  3.34252158E-04
  1.96585825E-04 -7.41702302E-04  4.48846008E-02  8.07495134E-01 -5.78867554E-01
  4.64229033E-04  8.29934741E-04  1.56381239E-02 -1.11366148E-02 -2.85139337E-04
 -1.10815300E-04 -2.58424141E-03  2.10530059E-03 -2.89939329E-04  5.83280296E-04
 -6.62696221E-04  1.14818371E-03 -8.02389380E-04  5.25715524E-05 -5.01222877E-05
 -1.00875924E-04  2.29237253E-05  1.69570920E-04 -1.59679176E-04  5.35766215E-04
 -2.54357767E-04 -3.65529836E-04  2.53971051E-04 -7.58035581E-05  5.65022907E-05
 -2.56990641E-04 -5.18072257E-05  4.33598858E-05  7.66665005E-05 -3.91977184E-04
  1.12861638E-03 -9.40261823E-04 -6.56749081E-04  4.33623410E-04 -2.74896452E-03
  1.30625327E-03  3.19783156E-05 -1.91942029E-04  4.12552866E-04  4.65256989E-04
  3.06755774E-04  5.59158206E-04 -2.98661494E-04 -1.75263175E-04  9.87972316E-05
 -2.40158167E-04 -2.25225608E-04  2.31385979E-04 -4.78128109E-04  4.28681576E-04
  9.65975448E-05 -1.40740897E-04  2.07938068E-04 -1.21348987E-04  1.10449217E-04
 -2.47494721E-04  1.00489134E-05 -2.12058987E-04 -3.73705709E-05  4.17871080E-04
 -8.21566462E-04  8.33893046E-04 -6.20889179E-04  3.97089051E-04  1.42410277E-03
 -8.25619036E-04  6.23653416E-04 -3.53482327E-04 -1.65216651E-04 -2.85905746E-04
 -1.51439228E-04  3.82682155E-04 -2.29959411E-04  3.27826953E-04  4.87012287E-04
  1.05259826E-03 -9.16449092E-05 -1.83130311E-04 -1.34584211E-04 -3.31182596E-04
  2.45954025E-04 -9.51154775E-04  8.13038218E-01 -3.62862303E-01 -4.43175863E-01
  4.46561860E-04  1.58262605E-02 -7.05564915E-03 -8.56615017E-03  5.46489662E-04
 -2.53623478E-03  1.20873231E-03  1.49899933E-03  8.41856869E-04 -4.23285199E-04
 -8.96132421E-04  3.53130459E-04  5.18574227E-04 -1.06747006E-03  3.95344151E-04
 -1.10755743E-03 -2.62652809E-04  7.76895509E-04  8.96638856E-04  2.62817579E-03
 -3.52081816E-04 -1.05260718E-03 -7.93237165E-04 -8.82815535E-05 -4.28834720E-04
 -5.73085677E-04  3.35882997E-04  1.75235241E-04 -4.03478462E-04 -2.74969382E-04
  4.43841878E-04 -3.22513326E-04 -5.94517776E-04  2.25690497E-04 -6.21418626E-04
  1.68760191E-04  8.95821023E-04 -3.70311552E-04  2.60285386E-04 -5.39124638E-05
  7.94903677E-06  2.37194516E-04 -2.25028129E-04 -9.05169857E-05  1.68536345E-04
 -1.74030589E-04  9.51711731E-05 -4.00800546E-04 -4.80860012E-04 -1.47383924E-04
 -2.50519351E-04  1.19349638E-04  1.49427663E-04  1.49783931E-04 -6.75977387E-05
 -1.18216065E-04 -1.31840808E-04 -1.72207571E-04 -2.03175396E-04 -2.94707361E-04
  8.08696948E-04 -4.48443380E-04  5.85270190E-04 -5.48173928E-04 -1.94388168E-03
  1.61045330E-04 -7.78733123E-04  4.62215456E-04  4.28486778E-04  2.75766657E-04
  1.29612988E-04 -4.31707624E-04  1.28243034E-04 -1.70519250E-04 -4.93733012E-05
 -2.80351826E-04  2.36985531E-04  4.57687456E-04 -4.68456183E-04 -9.97937933E-04
  1.80666795E-03 -6.85819921E-03  5.70961589E-01  4.53201316E-01  6.76585023E-01
  4.05476405E-03  1.02592221E-02  8.26541552E-03  1.22262420E-02  6.11857008E-04
 -1.16601824E-03 -6.03191254E-04 -1.54234711E-03 -1.06678887E-03 -1.29436939E-03
 -1.03877039E-03  3.42050189E-04  4.44431011E-04  5.05461080E-04 -2.54925214E-04
  5.98369149E-04  5.16986780E-04 -4.27958631E-04 -4.92926559E-04 -1.41972710E-03
 -9.65913790E-04  2.48055391E-04  4.62358695E-04 -6.47695700E-05  3.23054126E-04
  4.78295722E-04 -8.72263767E-05 -1.18658811E-04  4.39773041E-04 -1.80375014E-04
  4.56324915E-04 -2.77783564E-04 -2.89774957E-04  4.97301791E-04 -1.23155921E-03
  8.48685858E-05  2.16905966E-04 -7.52674490E-04  3.37903007E-04  3.19206349E-04
 -5.71479579E-05  3.79498106E-04 -1.31340543E-04 -8.34030755E-05  1.11790509E-03
 -1.69211883E-03 -2.06794271E-03 -1.42386632E-03 -1.57175047E-03  9.33678993E-04
  1.46615963E-04 -1.25453465E-06  5.17032957E-05 -8.30988059E-04 -1.94327704E-04
 -3.51382633E-04 -1.05783428E-03 -1.18418854E-03 -8.40364075E-04 -1.58751079E-04
  7.42025621E-04 -3.42300340E-04  6.90053436E-04 -1.29695155E-04 -2.32669699E-03
 -4.52375432E-04 -1.14010390E-03 -4.24960188E-04  4.98866055E-04  2.56643177E-04
  4.14478455E-04 -4.31130877E-04  2.40914904E-04 -3.12805944E-04  1.97652755E-06
 -1.33397451E-04  5.51260119E-04  7.35980926E-04 -5.70253449E-05 -2.13319701E-04
  3.08563740E-02 -1.44384618E-01 -1.75044285E-02 -1.33495649E-02 -1.12789161E-02
  2.46034279E-01  3.55117771E-02  2.80981161E-02  2.37621194E-02 -3.56158402E-02
 -9.46510851E-03 -5.25701933E-03 -5.53738480E-03  2.32319874E-03  8.54188876E-04
 -4.61742940E-03 -2.56308984E-04 -2.75741250E-03 -3.30283986E-03 -1.04474120E-01
  2.32752437E-01 -4.58029572E-03 -3.97644871E-02 -3.03019619E-02  2.23387886E-01
 -1.94403683E-03 -2.40722501E-02 -1.80309796E-02  9.45954499E-03  7.29408489E-03
  7.61623204E-03  7.45039644E-04 -6.40383243E-03  7.05669604E-03 -1.17743899E-01