
    -----------------------------------------------------------------------
          Psi4: An Open-Source Ab Initio Electronic Structure Package
                               Psi4 1.4a3.dev225 

                         Git: Rev {master} 7105e37 


    D. G. A. Smith, L. A. Burns, A. C. Simmonett, R. M. Parrish,
    M. C. Schieber, R. Galvelis, P. Kraus, H. Kruse, R. Di Remigio,
    A. Alenaizan, A. M. James, S. Lehtola, J. P. Misiewicz, M. Scheurer,
    R. A. Shaw, J. B. Schriber, Y. Xie, Z. L. Glick, D. A. Sirianni,
    J. S. O'Brien, J. M. Waldrop, A. Kumar, E. G. Hohenstein,
    B. P. Pritchard, B. R. Brooks, H. F. Schaefer III, A. Yu. Sokolov,
    K. Patkowski, A. E. DePrince III, U. Bozkaya, R. A. King,
    F. A. Evangelista, J. M. Turney, T. D. Crawford, C. D. Sherrill,
    J. Chem. Phys. 152(18) 184108 (2020). https://doi.org/10.1063/5.0006002

                            Additional Code Authors
    E. T. Seidl, C. L. Janssen, E. F. Valeev, M. L. Leininger,
    J. F. Gonthier, R. M. Richard, H. R. McAlexander, M. Saitow, X. Wang,
    P. Verma, and M. H. Lechner

             Previous Authors, Complete List of Code Contributors,
                       and Citations for Specific Modules
    https://github.com/psi4/psi4/blob/master/codemeta.json
    https://github.com/psi4/psi4/graphs/contributors
    http://psicode.org/psi4manual/master/introduction.html#citing-psifour

    -----------------------------------------------------------------------


    Psi4 started on: Thursday, 01 April 2021 05:26AM

    Process ID: 49312
    Host:       c446-022.stampede2.tacc.utexas.edu
    PSIDATADIR: /home1/07844/xy3866/miniconda3/envs/p4env/share/psi4
    Memory:     500.0 MiB
    Threads:    8
    
  ==> Input File <==

--------------------------------------------------------------------------
#psi4
#
memory 32 gb

molecule  {
0 1
  O       -0.4387840     2.7607480     0.8353900
  O       -2.1331470    -1.1223190    -0.8372800
  N       -1.8213880     1.6463300    -0.5966440
  N       -1.3631050    -2.2953590     0.9499780
  C        0.3530890     0.6863100    -0.0267190
  C        0.1273570    -0.7062790    -0.0589400
  C        1.6757520     1.1521170    -0.0434370
  C        1.2227880    -1.5827320    -0.1454420
  C        2.7536970     0.2775120    -0.1531960
  C        2.5274700    -1.0985820    -0.2079210
  C       -0.6853200     1.7746360     0.1326930
  C       -1.2296110    -1.3487220    -0.0223170
  H        1.8350890     2.2234210     0.0367700
  H        1.0390000    -2.6541090    -0.1799310
  H        3.7675570     0.6687350    -0.1864300
  H        3.3600860    -1.7923230    -0.2949860
  H       -2.0668670     0.7647910    -1.0387640
  H       -2.5394600     2.3415160    -0.4355780
  H       -0.7232160    -2.3232030     1.7312060
  H       -2.3217273    -2.7394950     1.0666492
units angstrom
no_reorient  #important for SAPT in psi4, default
symmetry c1  #important for SAPT in psi4, default
}

set PROPERTIES_ORIGIN ["COM"]
properties('MP2/aug-cc-pvtz', properties = ['dipole'])
--------------------------------------------------------------------------

  Memory set to  29.802 GiB by Python driver.
    SCF Algorithm Type (re)set to DF.

*** tstart() called on c446-022.stampede2.tacc.utexas.edu
*** at Thu Apr  1 05:26:30 2021

   => Loading Basis Set <=

    Name: AUG-CC-PVTZ
    Role: ORBITAL
    Keyword: BASIS
    atoms 1-2   entry O          line   331 file /home1/07844/xy3866/miniconda3/envs/p4env/share/psi4/basis/aug-cc-pvtz.gbs 
    atoms 3-4   entry N          line   285 file /home1/07844/xy3866/miniconda3/envs/p4env/share/psi4/basis/aug-cc-pvtz.gbs 
    atoms 5-12  entry C          line   239 file /home1/07844/xy3866/miniconda3/envs/p4env/share/psi4/basis/aug-cc-pvtz.gbs 
    atoms 13-20 entry H          line    40 file /home1/07844/xy3866/miniconda3/envs/p4env/share/psi4/basis/aug-cc-pvtz.gbs 


         ---------------------------------------------------------
                                   SCF
               by Justin Turney, Rob Parrish, Andy Simmonett
                          and Daniel G. A. Smith
                              RHF Reference
                        8 Threads,  30517 MiB Core
         ---------------------------------------------------------

  ==> Geometry <==

    Molecular point group: c1
    Full point group: C1

    Geometry (in Angstrom), charge = 0, multiplicity = 1:

       Center              X                  Y                   Z               Mass       
    ------------   -----------------  -----------------  -----------------  -----------------
         O           -0.424039328943     2.739834050745     0.839543460614    15.994914619570
         O           -2.118402328943    -1.143232949255    -0.833126539386    15.994914619570
         N           -1.806643328943     1.625416050745    -0.592490539386    14.003074004430
         N           -1.348360328943    -2.316272949255     0.954131460614    14.003074004430
         C            0.367833671057     0.665396050745    -0.022565539386    12.000000000000
         C            0.142101671057    -0.727192949255    -0.054786539386    12.000000000000
         C            1.690496671057     1.131203050745    -0.039283539386    12.000000000000
         C            1.237532671057    -1.603645949255    -0.141288539386    12.000000000000
         C            2.768441671057     0.256598050745    -0.149042539386    12.000000000000
         C            2.542214671057    -1.119495949255    -0.203767539386    12.000000000000
         C           -0.670575328943     1.753722050745     0.136846460614    12.000000000000
         C           -1.214866328943    -1.369635949255    -0.018163539386    12.000000000000
         H            1.849833671057     2.202507050745     0.040923460614     1.007825032230
         H            1.053744671057    -2.675022949255    -0.175777539386     1.007825032230
         H            3.782301671057     0.647821050745    -0.182276539386     1.007825032230
         H            3.374830671057    -1.813236949255    -0.290832539386     1.007825032230
         H           -2.052122328943     0.743877050745    -1.034610539386     1.007825032230
         H           -2.524715328943     2.320602050745    -0.431424539386     1.007825032230
         H           -0.708471328943    -2.344116949255     1.735359460614     1.007825032230
         H           -2.306982628943    -2.760408949255     1.070802660614     1.007825032230

  Running in c1 symmetry.

  Rotational constants: A =      0.03602  B =      0.03461  C =      0.01957 [cm^-1]
  Rotational constants: A =   1079.96562  B =   1037.72397  C =    586.68354 [MHz]
  Nuclear repulsion =  669.514430316851190

  Charge       = 0
  Multiplicity = 1
  Electrons    = 86
  Nalpha       = 43
  Nbeta        = 43

  ==> Algorithm <==

  SCF Algorithm Type is DF.
  DIIS enabled.
  MOM disabled.
  Fractional occupation disabled.
  Guess Type is SAD.
  Energy threshold   = 1.00e-10
  Density threshold  = 1.00e-10
  Integral threshold = 1.00e-12

  ==> Primary Basis <==

  Basis Set: AUG-CC-PVTZ
    Blend: AUG-CC-PVTZ
    Number of shells: 240
    Number of basis functions: 736
    Number of Cartesian functions: 860
    Spherical Harmonics?: true
    Max angular momentum: 3

   => Loading Basis Set <=

    Name: (AUG-CC-PVTZ AUX)
    Role: JKFIT
    Keyword: DF_BASIS_SCF
    atoms 1-2   entry O          line   286 file /home1/07844/xy3866/miniconda3/envs/p4env/share/psi4/basis/aug-cc-pvtz-jkfit.gbs 
    atoms 3-4   entry N          line   224 file /home1/07844/xy3866/miniconda3/envs/p4env/share/psi4/basis/aug-cc-pvtz-jkfit.gbs 
    atoms 5-12  entry C          line   162 file /home1/07844/xy3866/miniconda3/envs/p4env/share/psi4/basis/aug-cc-pvtz-jkfit.gbs 
    atoms 13-20 entry H          line    70 file /home1/07844/xy3866/miniconda3/envs/p4env/share/psi4/basis/aug-cc-pvtz-jkfit.gbs 

  ==> Integral Setup <==

  DFHelper Memory: AOs need 5.982 GiB; user supplied 22.352 GiB. Using in-core AOs.

  ==> MemDFJK: Density-Fitted J/K Matrices <==

    J tasked:                   Yes
    K tasked:                   Yes
    wK tasked:                   No
    OpenMP threads:               8
    Memory [MiB]:             22888
    Algorithm:                 Core
    Schwarz Cutoff:           1E-12
    Mask sparsity (%):      10.7481
    Fitting Condition:        1E-10

   => Auxiliary Basis Set <=

  Basis Set: (AUG-CC-PVTZ AUX)
    Blend: AUG-CC-PVTZ-JKFIT
    Number of shells: 472
    Number of basis functions: 1616
    Number of Cartesian functions: 2012
    Spherical Harmonics?: true
    Max angular momentum: 4

  Minimum eigenvalue in the overlap matrix is 5.3048197411E-07.
  Reciprocal condition number of the overlap matrix is 2.7350898283E-08.
    Using symmetric orthogonalization.

  ==> Pre-Iterations <==

  SCF Guess: Superposition of Atomic Densities via on-the-fly atomic UHF (no occupation information).

   -------------------------
    Irrep   Nso     Nmo    
   -------------------------
     A        736     736 
   -------------------------
    Total     736     736
   -------------------------

  ==> Iterations <==

                           Total Energy        Delta E     RMS |[F,P]|

   @DF-RHF iter SAD:  -565.43708784088767   -5.65437e+02   0.00000e+00 
   @DF-RHF iter   1:  -566.11718616938924   -6.80098e-01   1.15561e-03 DIIS
   @DF-RHF iter   2:  -566.37835348598765   -2.61167e-01   6.70051e-04 DIIS
   @DF-RHF iter   3:  -566.46204869373560   -8.36952e-02   1.34201e-04 DIIS
   @DF-RHF iter   4:  -566.46699826824170   -4.94957e-03   5.92075e-05 DIIS
   @DF-RHF iter   5:  -566.46805355273318   -1.05528e-03   1.07188e-05 DIIS
   @DF-RHF iter   6:  -566.46812989740613   -7.63447e-05   5.16963e-06 DIIS
   @DF-RHF iter   7:  -566.46814865064812   -1.87532e-05   2.17152e-06 DIIS
   @DF-RHF iter   8:  -566.46815234510461   -3.69446e-06   8.46458e-07 DIIS
   @DF-RHF iter   9:  -566.46815287993945   -5.34835e-07   3.53211e-07 DIIS
   @DF-RHF iter  10:  -566.46815296217903   -8.22396e-08   9.93487e-08 DIIS
   @DF-RHF iter  11:  -566.46815296978866   -7.60963e-09   3.80975e-08 DIIS
   @DF-RHF iter  12:  -566.46815297045771   -6.69047e-10   1.73054e-08 DIIS
   @DF-RHF iter  13:  -566.46815297061084   -1.53136e-10   4.38072e-09 DIIS
   @DF-RHF iter  14:  -566.46815297062983   -1.89857e-11   2.26775e-09 DIIS
   @DF-RHF iter  15:  -566.46815297063722   -7.38964e-12   1.13242e-09 DIIS
   @DF-RHF iter  16:  -566.46815297063961   -2.38742e-12   5.30299e-10 DIIS
   @DF-RHF iter  17:  -566.46815297064074   -1.13687e-12   1.95266e-10 DIIS
   @DF-RHF iter  18:  -566.46815297064018    5.68434e-13   6.56076e-11 DIIS
  Energy and wave function converged.


  ==> Post-Iterations <==

    Orbital Energies [Eh]
    ---------------------

    Doubly Occupied:                                                      

       1A    -20.546471     2A    -20.515180     3A    -15.612970  
       4A    -15.571673     5A    -11.385900     6A    -11.357412  
       7A    -11.280534     8A    -11.273147     9A    -11.265417  
      10A    -11.261908    11A    -11.258313    12A    -11.255521  
      13A     -1.400518    14A     -1.369420    15A     -1.231695  
      16A     -1.203434    17A     -1.174342    18A     -1.054680  
      19A     -1.046351    20A     -0.906393    21A     -0.868581  
      22A     -0.820346    23A     -0.787098    24A     -0.761779  
      25A     -0.720770    26A     -0.696818    27A     -0.686294  
      28A     -0.658709    29A     -0.648447    30A     -0.630958  
      31A     -0.610091    32A     -0.592526    33A     -0.580148  
      34A     -0.566256    35A     -0.538702    36A     -0.522827  
      37A     -0.517075    38A     -0.455385    39A     -0.440002  
      40A     -0.428789    41A     -0.402323    42A     -0.362706  
      43A     -0.356172  

    Virtual:                                                              

      44A      0.019199    45A      0.027447    46A      0.035493  
      47A      0.040900    48A      0.044953    49A      0.048776  
      50A      0.061593    51A      0.065347    52A      0.070929  
      53A      0.082168    54A      0.083575    55A      0.088783  
      56A      0.096471    57A      0.102646    58A      0.104174  
      59A      0.107590    60A      0.111727    61A      0.114089  
      62A      0.116372    63A      0.124878    64A      0.128328  
      65A      0.130521    66A      0.135919    67A      0.137859  
      68A      0.141484    69A      0.143331    70A      0.150309  
      71A      0.152451    72A      0.157126    73A      0.160859  
      74A      0.165560    75A      0.174407    76A      0.178523  
      77A      0.179006    78A      0.182858    79A      0.188131  
      80A      0.191660    81A      0.195561    82A      0.203331  
      83A      0.215876    84A      0.220418    85A      0.223824  
      86A      0.229075    87A      0.234559    88A      0.239078  
      89A      0.242213    90A      0.246484    91A      0.252688  
      92A      0.258797    93A      0.263067    94A      0.265876  
      95A      0.271637    96A      0.279422    97A      0.286591  
      98A      0.289104    99A      0.292504   100A      0.299881  
     101A      0.302373   102A      0.307769   103A      0.311308  
     104A      0.314788   105A      0.319346   106A      0.321078  
     107A      0.322342   108A      0.326660   109A      0.334051  
     110A      0.336417   111A      0.344753   112A      0.347609  
     113A      0.351190   114A      0.361258   115A      0.366138  
     116A      0.371602   117A      0.372908   118A      0.376907  
     119A      0.385233   120A      0.391206   121A      0.397214  
     122A      0.403701   123A      0.405989   124A      0.410086  
     125A      0.419633   126A      0.421928   127A      0.423949  
     128A      0.430678   129A      0.432680   130A      0.438293  
     131A      0.444469   132A      0.447877   133A      0.454188  
     134A      0.456941   135A      0.461618   136A      0.463042  
     137A      0.466659   138A      0.471043   139A      0.478176  
     140A      0.485040   141A      0.486126   142A      0.495309  
     143A      0.497540   144A      0.503271   145A      0.504241  
     146A      0.509766   147A      0.512257   148A      0.519584  
     149A      0.523298   150A      0.527274   151A      0.530105  
     152A      0.534123   153A      0.542153   154A      0.547955  
     155A      0.552755   156A      0.557510   157A      0.562411  
     158A      0.576695   159A      0.578530   160A      0.582479  
     161A      0.590179   162A      0.598939   163A      0.600069  
     164A      0.610151   165A      0.616150   166A      0.618954  
     167A      0.622427   168A      0.626915   169A      0.632149  
     170A      0.638736   171A      0.645405   172A      0.654368  
     173A      0.659986   174A      0.665756   175A      0.667050  
     176A      0.679259   177A      0.685785   178A      0.689335  
     179A      0.693367   180A      0.697125   181A      0.705857  
     182A      0.710357   183A      0.716748   184A      0.723927  
     185A      0.729164   186A      0.744026   187A      0.756924  
     188A      0.758948   189A      0.765649   190A      0.771311  
     191A      0.778096   192A      0.786747   193A      0.796356  
     194A      0.805090   195A      0.806672   196A      0.812756  
     197A      0.821181   198A      0.832243   199A      0.841045  
     200A      0.843169   201A      0.846989   202A      0.850780  
     203A      0.855334   204A      0.861835   205A      0.863908  
     206A      0.870090   207A      0.871704   208A      0.880777  
     209A      0.890691   210A      0.891442   211A      0.895934  
     212A      0.902233   213A      0.907005   214A      0.910270  
     215A      0.919391   216A      0.924598   217A      0.929835  
     218A      0.934763   219A      0.943070   220A      0.948188  
     221A      0.952584   222A      0.957391   223A      0.962776  
     224A      0.966565   225A      0.973356   226A      0.981889  
     227A      0.986829   228A      0.992090   229A      1.001930  
     230A      1.006468   231A      1.013867   232A      1.016346  
     233A      1.023885   234A      1.030149   235A      1.033060  
     236A      1.035805   237A      1.047820   238A      1.049177  
     239A      1.054226   240A      1.057612   241A      1.061521  
     242A      1.069486   243A      1.076783   244A      1.079283  
     245A      1.086002   246A      1.089109   247A      1.093357  
     248A      1.101054   249A      1.102875   250A      1.105021  
     251A      1.114386   252A      1.119818   253A      1.132149  
     254A      1.133785   255A      1.142290   256A      1.143127  
     257A      1.151192   258A      1.155426   259A      1.162295  
     260A      1.168978   261A      1.174118   262A      1.179451  
     263A      1.184497   264A      1.196247   265A      1.202668  
     266A      1.205413   267A      1.209134   268A      1.213446  
     269A      1.217040   270A      1.227773   271A      1.231665  
     272A      1.232748   273A      1.249929   274A      1.257926  
     275A      1.258730   276A      1.267609   277A      1.269321  
     278A      1.276526   279A      1.280655   280A      1.285285  
     281A      1.295449   282A      1.297839   283A      1.308602  
     284A      1.314998   285A      1.322107   286A      1.323353  
     287A      1.333453   288A      1.343663   289A      1.351079  
     290A      1.357394   291A      1.363223   292A      1.370114  
     293A      1.379049   294A      1.386202   295A      1.393399  
     296A      1.403853   297A      1.407580   298A      1.412724  
     299A      1.424986   300A      1.427593   301A      1.434857  
     302A      1.436198   303A      1.452879   304A      1.461967  
     305A      1.468806   306A      1.475818   307A      1.477467  
     308A      1.488092   309A      1.495487   310A      1.496813  
     311A      1.506586   312A      1.517544   313A      1.528886  
     314A      1.534595   315A      1.539666   316A      1.553155  
     317A      1.557856   318A      1.560104   319A      1.567964  
     320A      1.577867   321A      1.591414   322A      1.596594  
     323A      1.605043   324A      1.618413   325A      1.622601  
     326A      1.628133   327A      1.642296   328A      1.644873  
     329A      1.658757   330A      1.670652   331A      1.678860  
     332A      1.694001   333A      1.698812   334A      1.702826  
     335A      1.708780   336A      1.721036   337A      1.731917  
     338A      1.735763   339A      1.742438   340A      1.757888  
     341A      1.760255   342A      1.778437   343A      1.786260  
     344A      1.788096   345A      1.804120   346A      1.812784  
     347A      1.831044   348A      1.834121   349A      1.843655  
     350A      1.848257   351A      1.859462   352A      1.863441  
     353A      1.873658   354A      1.881980   355A      1.896883  
     356A      1.903939   357A      1.910823   358A      1.923063  
     359A      1.929803   360A      1.941973   361A      1.959753  
     362A      1.965711   363A      1.972708   364A      1.977891  
     365A      1.988798   366A      1.998078   367A      2.005898  
     368A      2.010003   369A      2.025240   370A      2.038254  
     371A      2.040682   372A      2.045978   373A      2.050166  
     374A      2.067029   375A      2.073697   376A      2.077559  
     377A      2.090971   378A      2.109238   379A      2.117946  
     380A      2.119941   381A      2.134505   382A      2.143857  
     383A      2.149656   384A      2.160579   385A      2.171288  
     386A      2.187944   387A      2.197264   388A      2.211529  
     389A      2.228707   390A      2.240321   391A      2.248510  
     392A      2.260825   393A      2.271544   394A      2.276117  
     395A      2.281943   396A      2.294859   397A      2.312649  
     398A      2.316981   399A      2.337657   400A      2.343265  
     401A      2.360346   402A      2.373001   403A      2.378154  
     404A      2.385464   405A      2.392971   406A      2.401358  
     407A      2.416658   408A      2.421192   409A      2.432173  
     410A      2.434603   411A      2.452300   412A      2.464971  
     413A      2.466909   414A      2.478059   415A      2.482858  
     416A      2.489270   417A      2.505380   418A      2.523981  
     419A      2.533102   420A      2.548325   421A      2.553056  
     422A      2.566834   423A      2.575061   424A      2.575646  
     425A      2.591952   426A      2.597821   427A      2.620027  
     428A      2.628348   429A      2.645787   430A      2.649708  
     431A      2.659612   432A      2.671504   433A      2.684893  
     434A      2.690868   435A      2.712089   436A      2.715588  
     437A      2.720804   438A      2.741782   439A      2.752497  
     440A      2.774605   441A      2.778216   442A      2.784255  
     443A      2.807686   444A      2.819050   445A      2.827686  
     446A      2.843948   447A      2.860674   448A      2.861262  
     449A      2.887709   450A      2.895363   451A      2.921830  
     452A      2.940252   453A      2.960797   454A      2.986130  
     455A      3.013091   456A      3.019346   457A      3.035267  
     458A      3.046550   459A      3.069156   460A      3.078951  
     461A      3.100672   462A      3.104162   463A      3.130943  
     464A      3.150140   465A      3.173283   466A      3.199226  
     467A      3.200826   468A      3.229059   469A      3.246374  
     470A      3.284174   471A      3.305578   472A      3.327577  
     473A      3.332452   474A      3.346158   475A      3.366059  
     476A      3.374992   477A      3.381157   478A      3.398989  
     479A      3.408404   480A      3.428996   481A      3.431003  
     482A      3.443484   483A      3.459017   484A      3.467918  
     485A      3.473853   486A      3.489472   487A      3.498597  
     488A      3.516977   489A      3.531522   490A      3.542057  
     491A      3.557667   492A      3.566247   493A      3.577380  
     494A      3.585200   495A      3.593152   496A      3.611425  
     497A      3.622727   498A      3.634732   499A      3.639989  
     500A      3.668600   501A      3.674650   502A      3.687519  
     503A      3.690030   504A      3.697048   505A      3.724701  
     506A      3.731907   507A      3.739723   508A      3.753992  
     509A      3.764864   510A      3.771731   511A      3.783987  
     512A      3.804142   513A      3.822438   514A      3.823482  
     515A      3.841210   516A      3.862139   517A      3.866378  
     518A      3.886827   519A      3.890848   520A      3.901249  
     521A      3.908388   522A      3.922221   523A      3.928827  
     524A      3.941397   525A      3.948184   526A      3.960645  
     527A      3.976614   528A      3.979986   529A      3.986676  
     530A      4.005628   531A      4.014552   532A      4.023836  
     533A      4.027219   534A      4.034536   535A      4.054311  
     536A      4.057298   537A      4.066047   538A      4.074124  
     539A      4.081640   540A      4.097519   541A      4.126699  
     542A      4.133680   543A      4.143013   544A      4.150735  
     545A      4.160930   546A      4.178548   547A      4.184067  
     548A      4.205807   549A      4.227977   550A      4.242872  
     551A      4.252894   552A      4.275196   553A      4.282183  
     554A      4.292217   555A      4.294842   556A      4.303523  
     557A      4.312638   558A      4.324255   559A      4.331264  
     560A      4.343393   561A      4.345322   562A      4.353135  
     563A      4.369430   564A      4.380118   565A      4.386293  
     566A      4.392312   567A      4.403649   568A      4.418111  
     569A      4.420669   570A      4.425299   571A      4.439577  
     572A      4.450708   573A      4.459765   574A      4.474359  
     575A      4.484947   576A      4.492394   577A      4.503387  
     578A      4.516836   579A      4.527074   580A      4.554019  
     581A      4.559631   582A      4.576430   583A      4.589364  
     584A      4.593638   585A      4.600536   586A      4.622800  
     587A      4.645440   588A      4.661830   589A      4.674233  
     590A      4.679898   591A      4.696028   592A      4.702418  
     593A      4.711538   594A      4.716281   595A      4.728204  
     596A      4.738863   597A      4.750787   598A      4.769353  
     599A      4.785812   600A      4.798959   601A      4.820961  
     602A      4.829963   603A      4.855735   604A      4.868905  
     605A      4.881068   606A      4.883117   607A      4.898893  
     608A      4.918506   609A      4.941152   610A      4.950226  
     611A      4.958703   612A      4.970233   613A      4.988302  
     614A      4.991140   615A      4.998244   616A      5.010945  
     617A      5.022668   618A      5.040086   619A      5.057297  
     620A      5.069089   621A      5.090903   622A      5.098147  
     623A      5.117711   624A      5.126154   625A      5.140926  
     626A      5.151135   627A      5.164503   628A      5.177418  
     629A      5.186397   630A      5.215091   631A      5.223855  
     632A      5.255319   633A      5.264522   634A      5.281107  
     635A      5.300502   636A      5.313677   637A      5.334424  
     638A      5.351288   639A      5.365655   640A      5.377481  
     641A      5.388283   642A      5.412529   643A      5.436945  
     644A      5.450227   645A      5.458607   646A      5.477961  
     647A      5.512900   648A      5.531428   649A      5.552954  
     650A      5.576827   651A      5.587317   652A      5.604215  
     653A      5.628204   654A      5.694079   655A      5.694876  
     656A      5.713546   657A      5.725546   658A      5.754081  
     659A      5.783436   660A      5.801972   661A      5.821488  
     662A      5.847875   663A      5.876391   664A      5.912208  
     665A      5.927236   666A      5.982553   667A      6.030291  
     668A      6.037288   669A      6.082442   670A      6.121195  
     671A      6.131630   672A      6.156562   673A      6.181124  
     674A      6.211549   675A      6.229629   676A      6.244308  
     677A      6.261778   678A      6.272713   679A      6.301405  
     680A      6.366010   681A      6.395054   682A      6.429097  
     683A      6.457752   684A      6.480778   685A      6.491043  
     686A      6.599406   687A      6.644364   688A      6.663151  
     689A      6.757419   690A      6.783051   691A      6.806957  
     692A      6.817869   693A      6.835480   694A      6.851682  
     695A      6.934000   696A      6.948008   697A      6.999924  
     698A      7.049373   699A      7.072016   700A      7.075069  
     701A      7.110472   702A      7.147809   703A      7.189057  
     704A      7.200150   705A      7.258921   706A      7.295004  
     707A      7.401854   708A      7.426093   709A      7.438504  
     710A      7.453893   711A      7.478501   712A      7.549100  
     713A      7.608018   714A      7.676791   715A      7.733830  
     716A      7.746411   717A      7.779852   718A      7.811415  
     719A      7.832581   720A      7.848668   721A      7.948691  
     722A      7.977850   723A      8.012510   724A      8.068289  
     725A     15.453163   726A     15.671736   727A     16.242180  
     728A     16.596847   729A     17.254040   730A     17.657878  
     731A     18.273901   732A     19.135361   733A     19.339382  
     734A     19.857326   735A     20.644889   736A     21.083166  

    Final Occupation by Irrep:
              A 
    DOCC [    43 ]

  @DF-RHF Final Energy:  -566.46815297064018

   => Energetics <=

    Nuclear Repulsion Energy =            669.5144303168511897
    One-Electron Energy =               -2100.7170093034651472
    Two-Electron Energy =                 864.7344260159736677
    Total Energy =                       -566.4681529706401761

Computation Completed

*** tstop() called on c446-022.stampede2.tacc.utexas.edu at Thu Apr  1 05:27:58 2021
Module time:
	user time   =     561.78 seconds =       9.36 minutes
	system time =      13.10 seconds =       0.22 minutes
	total time  =         88 seconds =       1.47 minutes
Total time:
	user time   =     561.78 seconds =       9.36 minutes
	system time =      13.10 seconds =       0.22 minutes
	total time  =         88 seconds =       1.47 minutes
   => Loading Basis Set <=

    Name: (AUG-CC-PVTZ AUX)
    Role: RIFIT
    Keyword: DF_BASIS_MP2
    atoms 1-2   entry O          line   264 file /home1/07844/xy3866/miniconda3/envs/p4env/share/psi4/basis/aug-cc-pvtz-ri.gbs 
    atoms 3-4   entry N          line   206 file /home1/07844/xy3866/miniconda3/envs/p4env/share/psi4/basis/aug-cc-pvtz-ri.gbs 
    atoms 5-12  entry C          line   148 file /home1/07844/xy3866/miniconda3/envs/p4env/share/psi4/basis/aug-cc-pvtz-ri.gbs 
    atoms 13-20 entry H          line    30 file /home1/07844/xy3866/miniconda3/envs/p4env/share/psi4/basis/aug-cc-pvtz-ri.gbs 


*** tstart() called on c446-022.stampede2.tacc.utexas.edu
*** at Thu Apr  1 05:27:59 2021


  //>>>>>>>>>>>>>>>>>>>>>>>>>>>>>>>>>>>//
  //               DFMP2               //
  //<<<<<<<<<<<<<<<<<<<<<<<<<<<<<<<<<<<//

	 --------------------------------------------------------
	                          DF-MP2                         
	      2nd-Order Density-Fitted Moller-Plesset Theory     
	              RMP2 Wavefunction,   8 Threads             
	                                                         
	        Rob Parrish, Justin Turney, Andy Simmonett,      
	           Ed Hohenstein, and C. David Sherrill          
	 --------------------------------------------------------

   => Auxiliary Basis Set <=

  Basis Set: (AUG-CC-PVTZ AUX)
    Blend: AUG-CC-PVTZ-RI
    Number of shells: 448
    Number of basis functions: 1640
    Number of Cartesian functions: 2072
    Spherical Harmonics?: true
    Max angular momentum: 4

	 --------------------------------------------------------
	                 NBF =   736, NAUX =  1640
	 --------------------------------------------------------
	   CLASS    FOCC     OCC    AOCC    AVIR     VIR    FVIR
	   PAIRS       0      43      43     693     693       0
	 --------------------------------------------------------

  DFHelper Memory: AOs need 6.270 GiB; user supplied 22.352 GiB. Using in-core AOs.


         ------------------------------------------------------------
                                     CPHF                           
                                  Rob Parrish                       
         ------------------------------------------------------------

  ==> Geometry <==

    Molecular point group: c1
    Full point group: C1

    Geometry (in Angstrom), charge = 0, multiplicity = 1:

       Center              X                  Y                   Z               Mass       
    ------------   -----------------  -----------------  -----------------  -----------------
         O           -0.424039328943     2.739834050745     0.839543460614    15.994914619570
         O           -2.118402328943    -1.143232949255    -0.833126539386    15.994914619570
         N           -1.806643328943     1.625416050745    -0.592490539386    14.003074004430
         N           -1.348360328943    -2.316272949255     0.954131460614    14.003074004430
         C            0.367833671057     0.665396050745    -0.022565539386    12.000000000000
         C            0.142101671057    -0.727192949255    -0.054786539386    12.000000000000
         C            1.690496671057     1.131203050745    -0.039283539386    12.000000000000
         C            1.237532671057    -1.603645949255    -0.141288539386    12.000000000000
         C            2.768441671057     0.256598050745    -0.149042539386    12.000000000000
         C            2.542214671057    -1.119495949255    -0.203767539386    12.000000000000
         C           -0.670575328943     1.753722050745     0.136846460614    12.000000000000
         C           -1.214866328943    -1.369635949255    -0.018163539386    12.000000000000
         H            1.849833671057     2.202507050745     0.040923460614     1.007825032230
         H            1.053744671057    -2.675022949255    -0.175777539386     1.007825032230
         H            3.782301671057     0.647821050745    -0.182276539386     1.007825032230
         H            3.374830671057    -1.813236949255    -0.290832539386     1.007825032230
         H           -2.052122328943     0.743877050745    -1.034610539386     1.007825032230
         H           -2.524715328943     2.320602050745    -0.431424539386     1.007825032230
         H           -0.708471328943    -2.344116949255     1.735359460614     1.007825032230
         H           -2.306982628943    -2.760408949255     1.070802660614     1.007825032230

  Nuclear repulsion =  669.514430316851303
  Reference energy  = -566.468152970640176

  ==> Basis Set <==

  Basis Set: AUG-CC-PVTZ
    Blend: AUG-CC-PVTZ
    Number of shells: 240
    Number of basis functions: 736
    Number of Cartesian functions: 860
    Spherical Harmonics?: true
    Max angular momentum: 3

  ==> CGRSolver (by Rob Parrish) <==

   Number of roots    =         1
   Preconditioning    =    JACOBI
   Convergence cutoff =     1E-06
   Maximum iterations =       100

  ==> CPHFRHamiltonian (by Rob Parrish) <== 

  ==> MemDFJK: Density-Fitted J/K Matrices <==

    J tasked:                   Yes
    K tasked:                   Yes
    wK tasked:                   No
    OpenMP threads:               8
    Memory [MiB]:             22888
    Algorithm:                 Core
    Schwarz Cutoff:           1E-12
    Mask sparsity (%):       6.3246
    Fitting Condition:        1E-10

   => Auxiliary Basis Set <=

  Basis Set: (AUG-CC-PVTZ AUX)
    Blend: AUG-CC-PVTZ-JKFIT
    Number of shells: 472
    Number of basis functions: 1616
    Number of Cartesian functions: 2012
    Spherical Harmonics?: true
    Max angular momentum: 4

  ==> CPHF Iterations <==

  => Iterations <=

             Iter  Converged  Remaining    Residual
  CGR           1          0          1   1.189E-01
  CGR           2          0          1   3.537E-02
  CGR           3          0          1   1.343E-02
  CGR           4          0          1   4.076E-03
  CGR           5          0          1   1.599E-03
  CGR           6          0          1   7.189E-04
  CGR           7          0          1   3.457E-04
  CGR           8          0          1   1.507E-04
  CGR           9          0          1   5.451E-05
  CGR          10          0          1   2.347E-05
  CGR          11          0          1   9.810E-06
  CGR          12          0          1   3.029E-06
  CGR          13          0          1   1.164E-06
  CGR          14          1          0   4.190E-07

    CGRSolver converged.

	-----------------------------------------------------------
	 ==================> DF-MP2 Energies <==================== 
	-----------------------------------------------------------
	 Reference Energy          =    -566.4681529706401761 [Eh]
	 Singles Energy            =      -0.0000000000000000 [Eh]
	 Same-Spin Energy          =      -0.5971613406598252 [Eh]
	 Opposite-Spin Energy      =      -1.7905705758068060 [Eh]
	 Correlation Energy        =      -2.3877319164666311 [Eh]
	 Total Energy              =    -568.8558848871067539 [Eh]
	-----------------------------------------------------------
	 ================> DF-SCS-MP2 Energies <================== 
	-----------------------------------------------------------
	 SCS Same-Spin Scale       =       0.3333333333333333 [-]
	 SCS Opposite-Spin Scale   =       1.2000000000000000 [-]
	 SCS Same-Spin Energy      =      -0.1990537802199417 [Eh]
	 SCS Opposite-Spin Energy  =      -2.1486846909681669 [Eh]
	 SCS Correlation Energy    =      -2.3477384711881086 [Eh]
	 SCS Total Energy          =    -568.8158914418282848 [Eh]
	-----------------------------------------------------------



Properties will be evaluated at   0.000000,  -0.000000,  -0.000000 [a0]

Properties computed using the MP2 density matrix

  Nuclear Dipole Moment: [e a0]
     X:     2.3110      Y:    -3.4383      Z:     0.6854

  Electronic Dipole Moment: [e a0]
     X:    -1.9632      Y:     1.8413      Z:    -0.2826

  Dipole Moment: [e a0]
     X:     0.3478      Y:    -1.5971      Z:     0.4028     Total:     1.6834

  Dipole Moment: [D]
     X:     0.8840      Y:    -4.0593      Z:     1.0238     Total:     4.2787


*** tstop() called on c446-022.stampede2.tacc.utexas.edu at Thu Apr  1 05:33:58 2021
Module time:
	user time   =    2242.32 seconds =      37.37 minutes
	system time =      32.19 seconds =       0.54 minutes
	total time  =        359 seconds =       5.98 minutes
Total time:
	user time   =    2805.10 seconds =      46.75 minutes
	system time =      45.32 seconds =       0.76 minutes
	total time  =        448 seconds =       7.47 minutes

    Psi4 stopped on: Thursday, 01 April 2021 05:33AM
    Psi4 wall time for execution: 0:07:29.73

*** Psi4 exiting successfully. Buy a developer a beer!
