opt=Tight                                                               
Freq      RMP2-FC                                                     6-31G(d)            
Number of atoms                            I               12
Info1-9                                    I   N=           9
          21          21        1002           0           0         100
           6           2           1
Charge                                     I                0
Multiplicity                               I                1
Number of electrons                        I               58
Number of alpha electrons                  I               29
Number of beta electrons                   I               29
Number of basis functions                  I              106
Number of independent functions            I              106
Number of point charges in /Mol/           I                0
Number of translation vectors              I                0
Atomic numbers                             I   N=          12
          16           8           8           8           6           6
           1           1           1           1           1           1
Nuclear charges                            R   N=          12
  1.60000000E+01  8.00000000E+00  8.00000000E+00  8.00000000E+00  6.00000000E+00
  6.00000000E+00  1.00000000E+00  1.00000000E+00  1.00000000E+00  1.00000000E+00
  1.00000000E+00  1.00000000E+00
Current cartesian coordinates              R   N=          36
 -7.96434527E-01 -2.93903436E-01  2.98066503E-02 -2.91119681E+00  1.85656333E+00
 -7.29048783E-01 -1.21046974E+00 -9.02552098E-01  2.69629337E+00 -7.97112939E-01
 -2.25924129E+00 -1.89666710E+00  1.98085251E+00  1.57167011E+00 -3.22753885E-01
  4.32271073E+00 -4.29383572E-02  1.29442461E-01  1.92217840E+00  2.34281065E+00
 -2.23764739E+00  1.81903904E+00  3.12040461E+00  1.03209660E+00  6.00902297E+00
  1.13030945E+00 -6.73214935E-02  4.29952946E+00 -8.43687129E-01  2.03124016E+00
  4.42196104E+00 -1.58096378E+00 -1.24084142E+00 -4.19992389E+00  1.80302739E+00
  6.00838424E-01
Force Field                                I                0
Int Atom Types                             I   N=          12
           0           0           0           0           0           0
           0           0           0           0           0           0
MM charges                                 R   N=          12
  0.00000000E+00  0.00000000E+00  0.00000000E+00  0.00000000E+00  0.00000000E+00
  0.00000000E+00  0.00000000E+00  0.00000000E+00  0.00000000E+00  0.00000000E+00
  0.00000000E+00  0.00000000E+00
Integer atomic weights                     I   N=          12
          32          16          16          16          12          12
           1           1           1           1           1           1
Real atomic weights                        R   N=          12
  3.19720718E+01  1.59949146E+01  1.59949146E+01  1.59949146E+01  1.20000000E+01
  1.20000000E+01  1.00782504E+00  1.00782504E+00  1.00782504E+00  1.00782504E+00
  1.00782504E+00  1.00782504E+00
Atom fragment info                         I   N=          12
           0           0           0           0           0           0
           0           0           0           0           0           0
Atom residue num                           I   N=          12
           0           0           0           0           0           0
           0           0           0           0           0           0
Nuclear spins                              I   N=          12
           0           0           0           0           0           0
           1           1           1           1           1           1
Nuclear ZEff                               R   N=          12
 -1.36000000E+01 -5.60000000E+00 -5.60000000E+00 -5.60000000E+00 -3.60000000E+00
 -3.60000000E+00 -1.00000000E+00 -1.00000000E+00 -1.00000000E+00 -1.00000000E+00
 -1.00000000E+00 -1.00000000E+00
Nuclear QMom                               R   N=          12
  0.00000000E+00  0.00000000E+00  0.00000000E+00  0.00000000E+00  0.00000000E+00
  0.00000000E+00  0.00000000E+00  0.00000000E+00  0.00000000E+00  0.00000000E+00
  0.00000000E+00  0.00000000E+00
Nuclear GFac                               R   N=          12
  0.00000000E+00  0.00000000E+00  0.00000000E+00  0.00000000E+00  0.00000000E+00
  0.00000000E+00  2.79284600E+00  2.79284600E+00  2.79284600E+00  2.79284600E+00
  2.79284600E+00  2.79284600E+00
MicOpt                                     I   N=          12
          -1          -1          -1          -1          -1          -1
          -1          -1          -1          -1          -1          -1
Number of contracted shells                I               37
Number of primitive shells                 I               96
Pure/Cartesian d shells                    I                1
Pure/Cartesian f shells                    I                0
Highest angular momentum                   I                2
Largest degree of contraction              I                6
Shell types                                I   N=          37
           0          -1          -1          -1           2           0
          -1          -1           2           0          -1          -1
           2           0          -1          -1           2           0
          -1          -1           2           0          -1          -1
           2           0           0           0           0           0
           0           0           0           0           0           0
           0
Number of primitives per shell             I   N=          37
           6           6           3           1           1           6
           3           1           1           6           3           1
           1           6           3           1           1           6
           3           1           1           6           3           1
           1           3           1           3           1           3
           1           3           1           3           1           3
           1
Shell to atom map                          I   N=          37
           1           1           1           1           1           2
           2           2           2           3           3           3
           3           4           4           4           4           5
           5           5           5           6           6           6
           6           7           7           8           8           9
           9          10          10          11          11          12
          12
Primitive exponents                        R   N=          96
  2.19171000E+04  3.30149000E+03  7.54146000E+02  2.12711000E+02  6.79896000E+01
  2.30515000E+01  4.23735000E+02  1.00710000E+02  3.21599000E+01  1.18079000E+01
  4.63110000E+00  1.87025000E+00  2.61584000E+00  9.22167000E-01  3.41287000E-01
  1.17167000E-01  6.50000000E-01  5.48467166E+03  8.25234946E+02  1.88046958E+02
  5.29645000E+01  1.68975704E+01  5.79963534E+00  1.55396162E+01  3.59993359E+00
  1.01376175E+00  2.70005823E-01  8.00000000E-01  5.48467166E+03  8.25234946E+02
  1.88046958E+02  5.29645000E+01  1.68975704E+01  5.79963534E+00  1.55396162E+01
  3.59993359E+00  1.01376175E+00  2.70005823E-01  8.00000000E-01  5.48467166E+03
  8.25234946E+02  1.88046958E+02  5.29645000E+01  1.68975704E+01  5.79963534E+00
  1.55396162E+01  3.59993359E+00  1.01376175E+00  2.70005823E-01  8.00000000E-01
  3.04752488E+03  4.57369518E+02  1.03948685E+02  2.92101553E+01  9.28666296E+00
  3.16392696E+00  7.86827235E+00  1.88128854E+00  5.44249258E-01  1.68714478E-01
  8.00000000E-01  3.04752488E+03  4.57369518E+02  1.03948685E+02  2.92101553E+01
  9.28666296E+00  3.16392696E+00  7.86827235E+00  1.88128854E+00  5.44249258E-01
  1.68714478E-01  8.00000000E-01  1.87311370E+01  2.82539436E+00  6.40121692E-01
  1.61277759E-01  1.87311370E+01  2.82539436E+00  6.40121692E-01  1.61277759E-01
  1.87311370E+01  2.82539436E+00  6.40121692E-01  1.61277759E-01  1.87311370E+01
  2.82539436E+00  6.40121692E-01  1.61277759E-01  1.87311370E+01  2.82539436E+00
  6.40121692E-01  1.61277759E-01  1.87311370E+01  2.82539436E+00  6.40121692E-01
  1.61277759E-01
Contraction coefficients                   R   N=          96
  1.86924085E-03  1.42303065E-02  6.96962317E-02  2.38487108E-01  4.83307220E-01
  3.38074154E-01 -2.37677050E-03 -3.16930067E-02 -1.13317024E-01  5.60900118E-02
  5.92255124E-01  4.55006095E-01 -2.50373114E-01  6.69567631E-02  1.05450627E+00
  1.00000000E+00  1.00000000E+00  1.83107443E-03  1.39501722E-02  6.84450781E-02
  2.32714336E-01  4.70192898E-01  3.58520853E-01 -1.10777550E-01 -1.48026263E-01
  1.13076702E+00  1.00000000E+00  1.00000000E+00  1.83107443E-03  1.39501722E-02
  6.84450781E-02  2.32714336E-01  4.70192898E-01  3.58520853E-01 -1.10777550E-01
 -1.48026263E-01  1.13076702E+00  1.00000000E+00  1.00000000E+00  1.83107443E-03
  1.39501722E-02  6.84450781E-02  2.32714336E-01  4.70192898E-01  3.58520853E-01
 -1.10777550E-01 -1.48026263E-01  1.13076702E+00  1.00000000E+00  1.00000000E+00
  1.83473713E-03  1.40373228E-02  6.88426223E-02  2.32184443E-01  4.67941348E-01
  3.62311985E-01 -1.19332420E-01 -1.60854152E-01  1.14345644E+00  1.00000000E+00
  1.00000000E+00  1.83473713E-03  1.40373228E-02  6.88426223E-02  2.32184443E-01
  4.67941348E-01  3.62311985E-01 -1.19332420E-01 -1.60854152E-01  1.14345644E+00
  1.00000000E+00  1.00000000E+00  3.34946043E-02  2.34726953E-01  8.13757326E-01
  1.00000000E+00  3.34946043E-02  2.34726953E-01  8.13757326E-01  1.00000000E+00
  3.34946043E-02  2.34726953E-01  8.13757326E-01  1.00000000E+00  3.34946043E-02
  2.34726953E-01  8.13757326E-01  1.00000000E+00  3.34946043E-02  2.34726953E-01
  8.13757326E-01  1.00000000E+00  3.34946043E-02  2.34726953E-01  8.13757326E-01
  1.00000000E+00
P(S=P) Contraction coefficients            R   N=          96
  0.00000000E+00  0.00000000E+00  0.00000000E+00  0.00000000E+00  0.00000000E+00
  0.00000000E+00  4.06100998E-03  3.06812999E-02  1.30451999E-01  3.27204999E-01
  4.52850998E-01  2.56041999E-01 -1.45104895E-02  3.10262776E-01  7.54482456E-01
  1.00000000E+00  0.00000000E+00  0.00000000E+00  0.00000000E+00  0.00000000E+00
  0.00000000E+00  0.00000000E+00  0.00000000E+00  7.08742682E-02  3.39752839E-01
  7.27158577E-01  1.00000000E+00  0.00000000E+00  0.00000000E+00  0.00000000E+00
  0.00000000E+00  0.00000000E+00  0.00000000E+00  0.00000000E+00  7.08742682E-02
  3.39752839E-01  7.27158577E-01  1.00000000E+00  0.00000000E+00  0.00000000E+00
  0.00000000E+00  0.00000000E+00  0.00000000E+00  0.00000000E+00  0.00000000E+00
  7.08742682E-02  3.39752839E-01  7.27158577E-01  1.00000000E+00  0.00000000E+00
  0.00000000E+00  0.00000000E+00  0.00000000E+00  0.00000000E+00  0.00000000E+00
  0.00000000E+00  6.89990666E-02  3.16423961E-01  7.44308291E-01  1.00000000E+00
  0.00000000E+00  0.00000000E+00  0.00000000E+00  0.00000000E+00  0.00000000E+00
  0.00000000E+00  0.00000000E+00  6.89990666E-02  3.16423961E-01  7.44308291E-01
  1.00000000E+00  0.00000000E+00  0.00000000E+00  0.00000000E+00  0.00000000E+00
  0.00000000E+00  0.00000000E+00  0.00000000E+00  0.00000000E+00  0.00000000E+00
  0.00000000E+00  0.00000000E+00  0.00000000E+00  0.00000000E+00  0.00000000E+00
  0.00000000E+00  0.00000000E+00  0.00000000E+00  0.00000000E+00  0.00000000E+00
  0.00000000E+00  0.00000000E+00  0.00000000E+00  0.00000000E+00  0.00000000E+00
  0.00000000E+00
Coordinates of each shell                  R   N=         111
 -7.96434501E-01 -2.93903355E-01  2.98062593E-02 -7.96434501E-01 -2.93903355E-01
  2.98062593E-02 -7.96434501E-01 -2.93903355E-01  2.98062593E-02 -7.96434501E-01
 -2.93903355E-01  2.98062593E-02 -7.96434501E-01 -2.93903355E-01  2.98062593E-02
 -2.91119674E+00  1.85656345E+00 -7.29049174E-01 -2.91119674E+00  1.85656345E+00
 -7.29049174E-01 -2.91119674E+00  1.85656345E+00 -7.29049174E-01 -2.91119674E+00
  1.85656345E+00 -7.29049174E-01 -1.21046973E+00 -9.02552008E-01  2.69629298E+00
 -1.21046973E+00 -9.02552008E-01  2.69629298E+00 -1.21046973E+00 -9.02552008E-01
  2.69629298E+00 -1.21046973E+00 -9.02552008E-01  2.69629298E+00 -7.97112953E-01
 -2.25924121E+00 -1.89666749E+00 -7.97112953E-01 -2.25924121E+00 -1.89666749E+00
 -7.97112953E-01 -2.25924121E+00 -1.89666749E+00 -7.97112953E-01 -2.25924121E+00
 -1.89666749E+00  1.98085257E+00  1.57167013E+00 -3.22754276E-01  1.98085257E+00
  1.57167013E+00 -3.22754276E-01  1.98085257E+00  1.57167013E+00 -3.22754276E-01
  1.98085257E+00  1.57167013E+00 -3.22754276E-01  4.32271077E+00 -4.29383805E-02
  1.29442070E-01  4.32271077E+00 -4.29383805E-02  1.29442070E-01  4.32271077E+00
 -4.29383805E-02  1.29442070E-01  4.32271077E+00 -4.29383805E-02  1.29442070E-01
  1.92217848E+00  2.34281068E+00 -2.23764778E+00  1.92217848E+00  2.34281068E+00
 -2.23764778E+00  1.81903913E+00  3.12040464E+00  1.03209621E+00  1.81903913E+00
  3.12040464E+00  1.03209621E+00  6.00902302E+00  1.13030939E+00 -6.73218845E-02
  6.00902302E+00  1.13030939E+00 -6.73218845E-02  4.29952948E+00 -8.43687152E-01
  2.03123977E+00  4.29952948E+00 -8.43687152E-01  2.03123977E+00  4.42196104E+00
 -1.58096381E+00 -1.24084181E+00  4.42196104E+00 -1.58096381E+00 -1.24084181E+00
 -4.19992382E+00  1.80302754E+00  6.00838033E-01 -4.19992382E+00  1.80302754E+00
  6.00838033E-01
Constraint Structure                       R   N=          36
 -7.96434501E-01 -2.93903355E-01  2.98062593E-02 -2.91119674E+00  1.85656345E+00
 -7.29049174E-01 -1.21046973E+00 -9.02552008E-01  2.69629298E+00 -7.97112953E-01
 -2.25924121E+00 -1.89666749E+00  1.98085257E+00  1.57167013E+00 -3.22754276E-01
  4.32271077E+00 -4.29383805E-02  1.29442070E-01  1.92217848E+00  2.34281068E+00
 -2.23764778E+00  1.81903913E+00  3.12040464E+00  1.03209621E+00  6.00902302E+00
  1.13030939E+00 -6.73218845E-02  4.29952948E+00 -8.43687152E-01  2.03123977E+00
  4.42196104E+00 -1.58096381E+00 -1.24084181E+00 -4.19992382E+00  1.80302754E+00
  6.00838033E-01
Num ILSW                                   I              100
ILSW                                       I   N=         100
           0           1           0           0           2           0
           0           0           0           0           0          -1
           0           0           0           0           0           0
           0           0           0           0           1           0
           1           0           0           0           0           0
           0           0      100000           0          -1           0
           0           0           0           0           0           0
           0           0           0           1           1           0
           0           0           1           0           0           0
           0           0           4          40           0           0
           0           0           0           0           0           0
           0           0           0           0           0           0
           0           0           0           0           0           0
           0           0           0           0           0           0
           0           0           0           0           0           0
           0           0           0           0           0           0
           0           0           0           0
Num RLSW                                   I               40
RLSW                                       R   N=          40
  1.00000000E+00  1.00000000E+00  1.00000000E+00  1.00000000E+00  1.00000000E+00
  0.00000000E+00  0.00000000E+00  1.00000000E+00  0.00000000E+00  0.00000000E+00
  0.00000000E+00  0.00000000E+00  1.00000000E+00  0.00000000E+00  0.00000000E+00
  0.00000000E+00  0.00000000E+00  1.00000000E+00  0.00000000E+00  0.00000000E+00
  0.00000000E+00  0.00000000E+00  1.00000000E+00  0.00000000E+00  0.00000000E+00
  0.00000000E+00  0.00000000E+00  1.00000000E+00  0.00000000E+00  0.00000000E+00
  0.00000000E+00  0.00000000E+00  0.00000000E+00  0.00000000E+00  0.00000000E+00
  0.00000000E+00  0.00000000E+00  0.00000000E+00  1.00000000E+00  1.00000000E+00
MxBond                                     I                4
NBond                                      I   N=          12
           4           2           1           1           4           4
           1           1           1           1           1           1
IBond                                      I   N=          48
           2           3           4           5           1          12
           0           0           1           0           0           0
           1           0           0           0           1           6
           7           8           5           9          10          11
           5           0           0           0           5           0
           0           0           6           0           0           0
           6           0           0           0           6           0
           0           0           2           0           0           0
RBond                                      R   N=          48
  1.00000000E+00  2.00000000E+00  2.00000000E+00  1.00000000E+00  1.00000000E+00
  1.00000000E+00  0.00000000E+00  0.00000000E+00  2.00000000E+00  0.00000000E+00
  0.00000000E+00  0.00000000E+00  2.00000000E+00  0.00000000E+00  0.00000000E+00
  0.00000000E+00  1.00000000E+00  1.00000000E+00  1.00000000E+00  1.00000000E+00
  1.00000000E+00  1.00000000E+00  1.00000000E+00  1.00000000E+00  1.00000000E+00
  0.00000000E+00  0.00000000E+00  0.00000000E+00  1.00000000E+00  0.00000000E+00
  0.00000000E+00  0.00000000E+00  1.00000000E+00  0.00000000E+00  0.00000000E+00
  0.00000000E+00  1.00000000E+00  0.00000000E+00  0.00000000E+00  0.00000000E+00
  1.00000000E+00  0.00000000E+00  0.00000000E+00  0.00000000E+00  1.00000000E+00
  0.00000000E+00  0.00000000E+00  0.00000000E+00
Virial Ratio                               R      2.002144723417509E+00
SCF Energy                                 R     -7.012491774548873E+02
MP2 Energy                                 R     -7.021994130284470E+02
Total Energy                               R     -7.021994130284470E+02
Post-SCF wavefunction norm                 R      1.609034461480339E+00
RMS Force                                  R      6.266270003604089E-07
RMS Density                                R      1.404897061696956E-09
External E-field                           R   N=          35
  0.00000000E+00  0.00000000E+00  0.00000000E+00  0.00000000E+00  0.00000000E+00
  0.00000000E+00  0.00000000E+00  0.00000000E+00  0.00000000E+00  0.00000000E+00
  0.00000000E+00  0.00000000E+00  0.00000000E+00  0.00000000E+00  0.00000000E+00
  0.00000000E+00  0.00000000E+00  0.00000000E+00  0.00000000E+00  0.00000000E+00
  0.00000000E+00  0.00000000E+00  0.00000000E+00  0.00000000E+00  0.00000000E+00
  0.00000000E+00  0.00000000E+00  0.00000000E+00  0.00000000E+00  0.00000000E+00
  0.00000000E+00  0.00000000E+00  0.00000000E+00  0.00000000E+00  0.00000000E+00
IOpCl                                      I                0
IROHF                                      I                0
Alpha Orbital Energies                     R   N=         106
 -9.22376426E+01 -2.06454177E+01 -2.05776191E+01 -2.05738582E+01 -1.12936824E+01
 -1.12523073E+01 -9.20760598E+00 -6.89398427E+00 -6.89299383E+00 -6.89195613E+00
 -1.50062481E+00 -1.38755342E+00 -1.35437592E+00 -1.09968690E+00 -9.47517651E-01
 -8.40076498E-01 -7.49535617E-01 -7.13761651E-01 -6.88434010E-01 -6.59639584E-01
 -6.30690997E-01 -5.96536173E-01 -5.69176894E-01 -5.56184441E-01 -5.40197599E-01
 -5.17861135E-01 -4.99668322E-01 -4.78953101E-01 -4.71510541E-01  1.89739214E-01
  1.99756309E-01  2.57759869E-01  2.62289175E-01  2.67303203E-01  2.79079312E-01
  2.82187785E-01  2.94633076E-01  3.19054915E-01  3.53233062E-01  3.69543218E-01
  5.20386757E-01  5.66887560E-01  5.89479004E-01  6.35111755E-01  6.82582037E-01
  7.16506397E-01  7.55460570E-01  8.21934056E-01  8.32952622E-01  9.16050714E-01
  9.77563633E-01  1.01498658E+00  1.02632011E+00  1.05224131E+00  1.05985102E+00
  1.10247204E+00  1.12251808E+00  1.14445352E+00  1.17829612E+00  1.20445741E+00
  1.20583863E+00  1.21170155E+00  1.25426651E+00  1.30022032E+00  1.31268779E+00
  1.32525544E+00  1.34947722E+00  1.41568718E+00  1.47957904E+00  1.49603702E+00
  1.53328985E+00  1.58692914E+00  1.68293344E+00  1.74219324E+00  1.81839522E+00
  1.87097574E+00  1.92148784E+00  2.01890880E+00  2.04446741E+00  2.07787393E+00
  2.09101033E+00  2.09594790E+00  2.13158910E+00  2.15694938E+00  2.19875699E+00
  2.23650414E+00  2.28980380E+00  2.36463204E+00  2.41590842E+00  2.45229940E+00
  2.52467937E+00  2.60600708E+00  2.61410060E+00  2.62676565E+00  2.64914329E+00
  2.66884147E+00  2.83042069E+00  2.92617735E+00  3.12468916E+00  3.17184520E+00
  4.12437498E+00  4.25201898E+00  4.30987997E+00  4.39398867E+00  4.56091300E+00
  4.78529518E+00
Alpha MO coefficients                      R   N=       11236
  9.96270548E-01  1.42095073E-02 -2.50055360E-05  1.69318316E-05 -3.88102550E-06
 -1.99450004E-02 -1.37563741E-05 -4.71530631E-05  2.97850643E-06  1.86639922E-03
  1.69392665E-04  5.18384565E-05  1.18546474E-05  6.88775944E-03  6.90776122E-03
  6.93662702E-03  4.36038567E-06  2.25515648E-06  5.17535035E-06 -9.75817979E-06
 -2.42604466E-05  1.71248115E-05  6.86766348E-06 -1.40309118E-05  4.56979492E-04
  5.90522761E-05 -2.00006973E-04  1.49131309E-04 -6.61581275E-05 -8.35459788E-05
 -2.60961985E-05  5.02343292E-05 -5.12719363E-05  1.18709880E-05  1.74213846E-05
  2.04836653E-05 -3.74083574E-06 -1.50590221E-05  9.16490273E-05  2.03807183E-04
 -1.56995990E-05  3.74065933E-05 -2.56973338E-04  4.69744865E-05  3.88973689E-05
 -1.11680520E-04 -8.99086060E-06  3.98237123E-05  4.69903907E-05  1.66417978E-05
  1.48516495E-05  7.84820633E-06 -6.71010354E-05 -7.23715802E-05  2.22442674E-04
 -4.61919686E-05  1.72949825E-04  1.93792668E-04  5.13305676E-05 -4.76242367E-05
 -3.67711026E-05 -6.44643326E-06 -6.16397704E-06 -1.02857098E-04 -2.02016258E-05
 -1.72792143E-05 -7.64243903E-05 -4.68367851E-05  9.53395616E-06  6.73198996E-04
  2.45977900E-05 -7.69923622E-05  1.13492694E-05 -5.90759777E-05 -4.36199526E-05
 -4.49066341E-05 -3.50083043E-05  8.12299123E-06 -2.49982421E-06 -1.92203862E-06
  2.25842073E-05  2.93274003E-05 -4.41787311E-06  7.47765050E-07 -1.52935806E-04
  1.79271246E-04 -8.62392691E-05  3.45062380E-05 -3.43329918E-05 -1.20890804E-05
 -2.03433317E-05  1.35036620E-05 -4.04955597E-06 -2.45045486E-06 -4.68463959E-05
 -1.85038703E-04 -4.07911690E-05 -1.92672355E-04 -9.96964444E-06 -2.47765994E-06
  2.09053894E-05 -1.11589029E-04  2.23008862E-05 -1.00884150E-04 -8.05142354E-05
 -1.33716553E-04  7.71985882E-06 -3.20661918E-05  5.55073689E-05 -5.51564395E-05
  1.89559658E-05  6.02791145E-05 -2.52427378E-04  2.64821461E-04 -8.54756434E-05
 -3.88788063E-04 -1.31441243E-04 -1.81634731E-04  5.39964923E-04  1.53509843E-04
  1.33539484E-04 -8.72907267E-06 -1.84920348E-04  5.26167791E-05 -6.02978367E-05
  9.94647001E-01  2.10902551E-02 -4.40571652E-05 -7.18225873E-04  1.00982601E-03
  4.18999518E-03  7.52160356E-05  3.16489649E-04 -5.11812570E-04 -4.14969839E-03
 -4.07353174E-03 -4.04873476E-03  1.61722339E-04  5.80345539E-05  8.24318869E-05
 -1.51224588E-04  6.91905434E-05  1.67763066E-05 -1.93949236E-05  4.06307474E-06
 -3.63807795E-04  1.00218958E-05  5.27782892E-06  3.37890010E-05  4.07770479E-05
  2.96738568E-05  4.58883856E-05  1.05759649E-05 -2.21222424E-05  1.27178102E-05
 -1.34034328E-04 -4.60427632E-05 -2.30877429E-06 -1.27919183E-05  1.69172081E-05
  3.44959712E-04  6.88434699E-05  8.89706266E-05 -2.68840206E-05 -3.81414823E-05
 -3.79879934E-05 -3.03528852E-05  3.21742161E-05  6.89174801E-06 -2.09788084E-06
 -6.46103855E-06 -2.23571425E-05 -1.70841724E-05  1.82506660E-05  1.80424196E-05
  3.71333272E-04  1.01068671E-04 -2.54480244E-04 -1.57757193E-04 -2.68111235E-05
  4.73859269E-06 -1.82813029E-05  6.97242126E-06  9.60554466E-06 -4.05172717E-06
  4.06007806E-06  2.27885485E-05  1.01680227E-05 -1.63042276E-06 -3.81353552E-06
 -2.48163819E-04  7.89468788E-05 -4.82439030E-05  1.01917618E-04 -3.01548602E-06
  8.95088604E-06  3.21128548E-06  2.89697076E-06 -6.70953071E-06  2.58029253E-06
 -2.06825940E-06 -3.34936494E-05  3.38437314E-05  8.15624320E-05  8.89892490E-06
  1.88971909E-05  9.38227592E-06 -5.83633252E-05  9.31217899E-06  6.03871725E-05
  3.99175410E-04 -2.55017332E-04  1.78470037E-05 -7.47095269E-05  6.91251608E-06
  5.16530298E-06 -1.78000293E-05  6.69958581E-04 -7.36531166E-05 -8.81742018E-05
  3.39620414E-04 -2.91158418E-05  8.96228723E-05  1.09621651E-04 -4.02502915E-04
 -1.47189144E-04 -1.45530443E-04 -1.56334665E-04 -7.19476558E-06  1.80143847E-07
 -1.73084963E-06  1.69849178E-04  2.50206612E-05 -8.21126381E-07  1.05744177E-05
 -2.64633051E-05 -7.63870058E-05 -6.54666503E-05  3.84125387E-05  4.31745500E-05
  3.74944831E-06 -1.11215452E-05 -1.25217590E-05  1.27680975E-05 -1.75014221E-05
  1.92414973E-05  9.94694402E-01  2.09400426E-02  1.90897324E-04  3.39394961E-04
 -1.35988595E-03  4.01083769E-03 -7.12603151E-05 -1.18803659E-04  4.84791536E-04
 -3.93137434E-03 -3.92380916E-03 -4.04290524E-03  3.93598427E-06  1.65450917E-05
  2.43545578E-05 -2.81676180E-03 -9.36929701E-06  3.66844842E-06  1.21314728E-05
 -2.30979910E-05 -2.34377466E-04 -4.00793097E-06 -5.99317437E-05 -4.91063201E-06
  4.24631819E-05  6.00568940E-05  4.92277656E-07  5.11210535E-06  4.71824681E-06
 -3.84084637E-06  1.75001724E-06  2.21191597E-05  1.16554789E-05  3.12337201E-06
 -1.56329097E-05 -5.02150207E-05  7.87975790E-05  6.44128546E-05  5.06031765E-05
 -1.23363441E-05 -8.56704397E-06 -1.08308112E-05 -1.18765956E-05  9.58174520E-06
  8.88187401E-06 -3.94399045E-07 -4.97230299E-06 -8.37879445E-06  5.75018116E-07
 -1.03603513E-08  3.06610674E-05  2.46402880E-05 -3.05931513E-05 -3.79440470E-06
  1.93653429E-06 -2.83276212E-06  9.80200628E-07  4.56893373E-06 -1.57066143E-06
  1.03672957E-06  1.84333294E-05 -5.52383582E-05  1.05956419E-06 -3.91922044E-05
 -3.55640648E-06 -1.10878988E-05  1.63359971E-05 -4.05824751E-05 -2.39081193E-06
 -2.54278135E-05 -1.37182764E-05 -2.90668469E-05  1.81236538E-05 -7.80006904E-05
  5.28213494E-06  1.07610581E-05  1.03945914E-05  6.87546004E-04 -2.68018644E-05
 -2.50206922E-04 -2.33580383E-04  2.13624962E-05  1.91317637E-05  3.36306101E-04
  3.10429461E-04 -1.54081260E-04 -1.65936078E-04 -1.68374699E-04 -6.32585032E-06
  7.89637725E-06 -2.46255534E-05  1.27939654E-04  3.19059322E-05  1.29342322E-06
  1.82349288E-05  1.08183351E-05 -1.15127207E-04 -6.30823725E-05  2.75430846E-05
 -4.46140856E-05  4.59561625E-06 -1.97133186E-05  7.76205928E-06  2.01353069E-05
  4.87809757E-06 -7.89943784E-06  2.83960658E-03  1.16729756E-04  3.23046595E-06
  2.48025229E-05  5.72266013E-06 -2.54168599E-04 -1.44502490E-05 -5.38799685E-05
  4.75680598E-05  2.50910487E-05  2.86026443E-05 -5.36815742E-06  5.20624911E-06
  8.79182221E-07 -2.96543825E-05  9.94694005E-01  2.09358127E-02  2.33243760E-07
  1.03174300E-03  1.00021450E-03  4.02793843E-03  6.80682726E-06 -3.57740769E-04
 -3.47595537E-04 -3.93255690E-03 -3.97750087E-03 -3.98756860E-03  1.66964577E-05
  5.65405037E-07 -5.54304539E-05  1.35396878E-06  2.42791468E-05  1.06384218E-05
  1.47135931E-05  1.30425078E-05 -3.98494525E-05  1.14611202E-04  1.79584708E-05
 -7.04179128E-05 -1.38024813E-05 -2.00188616E-05 -6.71614385E-06 -1.79678104E-05
 -8.12135395E-07 -7.79839872E-06  8.91604627E-08 -3.34627035E-06 -9.18872500E-06
  1.03211248E-07  2.30484759E-07  1.62957136E-05  4.04989837E-05 -4.12959363E-05
  1.64580227E-05  1.53231056E-06 -2.28515577E-06  1.58811431E-06  6.28477674E-06
 -2.31790812E-06  1.44541709E-06 -4.98262156E-07 -3.47097491E-05  2.23071892E-05
 -5.68783162E-05 -3.65195507E-06 -1.25775034E-05 -2.09017772E-06 -2.19623647E-05
  2.26503280E-05 -6.70749250E-05  1.61429347E-05 -5.23156365E-05  1.95780814E-06
 -6.62211969E-05 -3.73333269E-05 -2.33107772E-05  3.09668592E-06  3.45112710E-04
  5.02853708E-04  3.17946916E-04 -4.94617205E-05  3.97000806E-03  1.23381377E-03
  1.23661731E-03 -1.81246552E-04 -1.36704365E-04 -1.93362938E-04 -1.15320615E-04
 -3.25084100E-05  8.80296252E-06  1.67956700E-05  3.51625868E-05  1.11090457E-04
 -4.24141427E-05 -1.04874830E-06 -1.07174063E-05 -9.15492427E-04 -1.36619977E-04
  1.61742704E-04 -6.06683095E-05  1.77719947E-04  5.51211411E-05 -6.71018252E-06
  5.15945838E-05  1.03740732E-05 -9.82568419E-06  5.44586152E-06  1.77790042E-05
 -4.93730779E-05 -2.39811520E-05  5.11176673E-05 -4.46390800E-04 -2.96636779E-05
 -1.24351809E-04  4.39310804E-05  2.07642181E-05 -6.20625181E-05 -7.96553544E-06
  7.82474463E-05 -5.47773316E-06  4.62863673E-07 -5.17523473E-07 -1.78384958E-05
 -4.58169007E-05 -5.79338819E-05 -3.03746948E-05 -2.87992325E-04  3.37527281E-06
 -7.31652302E-05  2.16712305E-05  6.72008956E-06 -4.58979309E-05 -5.39077228E-05
  8.43127529E-05 -3.17304520E-05  3.95578543E-05  9.95781203E-01  2.86215219E-02
 -5.19065542E-04 -4.04136531E-04  7.89870361E-05 -1.56879473E-02  6.30616008E-04
  1.07385747E-03 -2.47634060E-04 -1.84453588E-03 -1.74605148E-03 -1.63441594E-03
 -1.51531304E-04  2.97509986E-05  2.65863331E-05  7.11170674E-03  2.53721619E-04
 -6.67151208E-05 -1.66859708E-05 -9.91297859E-07  3.59589130E-03 -1.27494193E-03
  8.60528103E-04 -2.20315430E-04 -3.48024110E-04 -2.74418073E-04 -1.24575246E-04
  2.12613483E-04 -5.84106143E-05  5.03516431E-05  2.08921517E-04  2.20198141E-03
  2.15201603E-04  2.19329497E-03 -1.36616135E-04 -1.02331192E-04 -1.23344911E-04
 -9.69270450E-05 -1.23849256E-04 -6.29156730E-05  6.72638837E-05 -9.90788382E-05
 -3.11788207E-06 -6.70942685E-05  8.50448731E-06  1.90776312E-05 -9.80441122E-06
 -2.12874440E-04 -1.56515327E-04 -1.44888528E-04  7.63330901E-05  1.54603014E-03
  9.94728202E-04 -2.65328236E-04  1.13059884E-04 -6.67215550E-05 -1.06644293E-04
 -6.71317531E-05 -1.51451123E-05 -2.85800014E-06  1.22056216E-05 -2.39371540E-05
 -8.94144704E-05 -1.54704055E-05  1.15720803E-05  7.85982079E-08  4.05086942E-04
  9.33740407E-05 -6.27157022E-05  5.17022951E-06 -5.60923777E-05 -6.68704191E-05