
    -----------------------------------------------------------------------
          Psi4: An Open-Source Ab Initio Electronic Structure Package
                               Psi4 1.3.2 release

                         Git: Rev {HEAD} ecbda83 


    R. M. Parrish, L. A. Burns, D. G. A. Smith, A. C. Simmonett,
    A. E. DePrince III, E. G. Hohenstein, U. Bozkaya, A. Yu. Sokolov,
    R. Di Remigio, R. M. Richard, J. F. Gonthier, A. M. James,
    H. R. McAlexander, A. Kumar, M. Saitow, X. Wang, B. P. Pritchard,
    P. Verma, H. F. Schaefer III, K. Patkowski, R. A. King, E. F. Valeev,
    F. A. Evangelista, J. M. Turney, T. D. Crawford, and C. D. Sherrill,
    J. Chem. Theory Comput. 13(7) pp 3185--3197 (2017).
    (doi: 10.1021/acs.jctc.7b00174)


                         Additional Contributions by
    P. Kraus, H. Kruse, M. H. Lechner, M. C. Schieber, R. A. Shaw,
    A. Alenaizan, R. Galvelis, Z. L. Glick, S. Lehtola, and J. P. Misiewicz

    -----------------------------------------------------------------------


    Psi4 started on: Tuesday, 02 February 2021 05:56PM

    Process ID: 37234
    Host:       node37.bme.utexas.edu
    PSIDATADIR: /home/xy3866/psi4conda/share/psi4
    Memory:     500.0 MiB
    Threads:    8
    
  ==> Input File <==

--------------------------------------------------------------------------
#psi4
#
memory 32 gb

molecule  {
0 1
  O       -1.4607440    -0.6783760    -0.0000110
  N        0.8364910    -1.0546300    -0.0000300
  N        2.0492790    -0.4487200    -0.0000870
  C       -0.2000590    -0.1785130    -0.0000310
  C        0.3504840     1.0933250    -0.0000620
  C        1.5443333     0.8922296    -0.0000938
  C       -2.4699820     0.3361590     0.0002330
  H       -0.1651650     2.0416990    -0.0000660
  H        0.7745000    -2.0647320    -0.0000170
  H        2.5420040     1.5875080    -0.0001330
  H       -3.4206380    -0.1946080     0.0003100
  H       -2.3886930     0.9604430    -0.8948830
  H       -2.3884390     0.9602630     0.8954520
units angstrom
no_reorient  #important for SAPT in psi4, default
symmetry c1  #important for SAPT in psi4, default
}

set PROPERTIES_ORIGIN ["COM"]
properties('MP2/aug-cc-pvtz', properties = ['dipole'])
--------------------------------------------------------------------------

  Memory set to  29.802 GiB by Python driver.
    SCF Algorithm Type (re)set to DF.

*** tstart() called on node37.bme.utexas.edu
*** at Tue Feb  2 17:56:00 2021

   => Loading Basis Set <=

    Name: AUG-CC-PVTZ
    Role: ORBITAL
    Keyword: BASIS
    atoms 1    entry O          line   327 file /home/xy3866/psi4conda/share/psi4/basis/aug-cc-pvtz.gbs 
    atoms 2-3  entry N          line   281 file /home/xy3866/psi4conda/share/psi4/basis/aug-cc-pvtz.gbs 
    atoms 4-7  entry C          line   235 file /home/xy3866/psi4conda/share/psi4/basis/aug-cc-pvtz.gbs 
    atoms 8-13 entry H          line    36 file /home/xy3866/psi4conda/share/psi4/basis/aug-cc-pvtz.gbs 


         ---------------------------------------------------------
                                   SCF
               by Justin Turney, Rob Parrish, Andy Simmonett
                          and Daniel G. A. Smith
                              RHF Reference
                        8 Threads,  30517 MiB Core
         ---------------------------------------------------------

  ==> Geometry <==

    Molecular point group: c1
    Full point group: C1

    Geometry (in Angstrom), charge = 0, multiplicity = 1:

       Center              X                  Y                   Z               Mass       
    ------------   -----------------  -----------------  -----------------  -----------------
         O           -1.487838597300    -0.649131567785    -0.000004965041    15.994914619570
         N            0.809396402700    -1.025385567785    -0.000023965041    14.003074004430
         N            2.022184402700    -0.419475567785    -0.000080965041    14.003074004430
         C           -0.227153597300    -0.149268567785    -0.000024965041    12.000000000000
         C            0.323389402700     1.122569432215    -0.000055965041    12.000000000000
         C            1.517238702700     0.921474032215    -0.000087765041    12.000000000000
         C           -2.497076597300     0.365403432215     0.000239034959    12.000000000000
         H           -0.192259597300     2.070943432215    -0.000059965041     1.007825032230
         H            0.747405402700    -2.035487567785    -0.000010965041     1.007825032230
         H            2.514909402700     1.616752432215    -0.000126965041     1.007825032230
         H           -3.447732597300    -0.165363567785     0.000316034959     1.007825032230
         H           -2.415787597300     0.989687432215    -0.894876965041     1.007825032230
         H           -2.415533597300     0.989507432215     0.895458034959     1.007825032230

  Running in c1 symmetry.

  Rotational constants: A =      0.25598  B =      0.07068  C =      0.05598 [cm^-1]
  Rotational constants: A =   7674.05168  B =   2118.99995  C =   1678.30856 [MHz]
  Nuclear repulsion =  298.248452787883195

  Charge       = 0
  Multiplicity = 1
  Electrons    = 52
  Nalpha       = 26
  Nbeta        = 26

  ==> Algorithm <==

  SCF Algorithm Type is DF.
  DIIS enabled.
  MOM disabled.
  Fractional occupation disabled.
  Guess Type is SAD.
  Energy threshold   = 1.00e-10
  Density threshold  = 1.00e-10
  Integral threshold = 0.00e+00

  ==> Primary Basis <==

  Basis Set: AUG-CC-PVTZ
    Blend: AUG-CC-PVTZ
    Number of shells: 152
    Number of basis function: 460
    Number of Cartesian functions: 535
    Spherical Harmonics?: true
    Max angular momentum: 3

   => Loading Basis Set <=

    Name: (AUG-CC-PVTZ AUX)
    Role: JKFIT
    Keyword: DF_BASIS_SCF
    atoms 1    entry O          line   286 file /home/xy3866/psi4conda/share/psi4/basis/aug-cc-pvtz-jkfit.gbs 
    atoms 2-3  entry N          line   224 file /home/xy3866/psi4conda/share/psi4/basis/aug-cc-pvtz-jkfit.gbs 
    atoms 4-7  entry C          line   162 file /home/xy3866/psi4conda/share/psi4/basis/aug-cc-pvtz-jkfit.gbs 
    atoms 8-13 entry H          line    70 file /home/xy3866/psi4conda/share/psi4/basis/aug-cc-pvtz-jkfit.gbs 

  ==> Pre-Iterations <==

   -------------------------------------------------------
    Irrep   Nso     Nmo     Nalpha   Nbeta   Ndocc  Nsocc
   -------------------------------------------------------
     A        460     460       0       0       0       0
   -------------------------------------------------------
    Total     460     460      26      26      26       0
   -------------------------------------------------------

  ==> Integral Setup <==

  DFHelper Memory: AOs need 1.602 GiB; user supplied 22.352 GiB. Using in-core AOs.

  ==> MemDFJK: Density-Fitted J/K Matrices <==

    J tasked:                   Yes
    K tasked:                   Yes
    wK tasked:                   No
    OpenMP threads:               8
    Memory [MiB]:             22888
    Algorithm:                 Core
    Schwarz Cutoff:           1E-12
    Mask sparsity (%):       2.7495
    Fitting Condition:        1E-10

   => Auxiliary Basis Set <=

  Basis Set: (AUG-CC-PVTZ AUX)
    Blend: AUG-CC-PVTZ-JKFIT
    Number of shells: 294
    Number of basis function: 1004
    Number of Cartesian functions: 1247
    Spherical Harmonics?: true
    Max angular momentum: 4

  Minimum eigenvalue in the overlap matrix is 2.2812877721E-06.
  Using Symmetric Orthogonalization.

  SCF Guess: Superposition of Atomic Densities via on-the-fly atomic UHF.

  ==> Iterations <==

                           Total Energy        Delta E     RMS |[F,P]|

   @DF-RHF iter SAD:  -338.42451449982229   -3.38425e+02   0.00000e+00 
   @DF-RHF iter   1:  -338.53239312710150   -1.07879e-01   1.29539e-03 DIIS
   @DF-RHF iter   2:  -338.68787398635487   -1.55481e-01   6.16792e-04 DIIS
   @DF-RHF iter   3:  -338.72368890938100   -3.58149e-02   1.33444e-04 DIIS
   @DF-RHF iter   4:  -338.72610642522562   -2.41752e-03   5.10688e-05 DIIS
   @DF-RHF iter   5:  -338.72640612282373   -2.99698e-04   1.30947e-05 DIIS
   @DF-RHF iter   6:  -338.72642925831116   -2.31355e-05   4.23056e-06 DIIS
   @DF-RHF iter   7:  -338.72643273776669   -3.47946e-06   2.27184e-06 DIIS
   @DF-RHF iter   8:  -338.72643365214986   -9.14383e-07   7.33342e-07 DIIS
   @DF-RHF iter   9:  -338.72643386346573   -2.11316e-07   4.66949e-07 DIIS
   @DF-RHF iter  10:  -338.72643393119114   -6.77254e-08   1.71939e-07 DIIS
   @DF-RHF iter  11:  -338.72643394472607   -1.35349e-08   5.85811e-08 DIIS
   @DF-RHF iter  12:  -338.72643394603841   -1.31234e-09   2.20049e-08 DIIS
   @DF-RHF iter  13:  -338.72643394616455   -1.26136e-10   4.53244e-09 DIIS
   @DF-RHF iter  14:  -338.72643394617120   -6.65068e-12   1.34421e-09 DIIS
   @DF-RHF iter  15:  -338.72643394617211   -9.09495e-13   5.60680e-10 DIIS
   @DF-RHF iter  16:  -338.72643394617114    9.66338e-13   2.01303e-10 DIIS
   @DF-RHF iter  17:  -338.72643394617097    1.70530e-13   8.68288e-11 DIIS
  Energy and wave function converged.


  ==> Post-Iterations <==

    Orbital Energies [Eh]
    ---------------------

    Doubly Occupied:                                                      

       1A    -20.614807     2A    -15.639213     3A    -15.568352  
       4A    -11.346896     5A    -11.304130     6A    -11.248767  
       7A    -11.210192     8A     -1.443596     9A     -1.356398  
      10A     -1.109988    11A     -1.057328    12A     -0.960514  
      13A     -0.840128    14A     -0.788685    15A     -0.751985  
      16A     -0.684184    17A     -0.652518    18A     -0.637950  
      19A     -0.610444    20A     -0.604352    21A     -0.548276  
      22A     -0.508282    23A     -0.496117    24A     -0.461128  
      25A     -0.403070    26A     -0.304535  

    Virtual:                                                              

      27A      0.023130    28A      0.035117    29A      0.038394  
      30A      0.042007    31A      0.049209    32A      0.061752  
      33A      0.075222    34A      0.099053    35A      0.102040  
      36A      0.103660    37A      0.113048    38A      0.116206  
      39A      0.123799    40A      0.126064    41A      0.128104  
      42A      0.135714    43A      0.139110    44A      0.148490  
      45A      0.148588    46A      0.158505    47A      0.162095  
      48A      0.176311    49A      0.182130    50A      0.185887  
      51A      0.199423    52A      0.204261    53A      0.214574  
      54A      0.232735    55A      0.238566    56A      0.240275  
      57A      0.247876    58A      0.252603    59A      0.259644  
      60A      0.266294    61A      0.276991    62A      0.280799  
      63A      0.291134    64A      0.300601    65A      0.307495  
      66A      0.316890    67A      0.321163    68A      0.324389  
      69A      0.335276    70A      0.340085    71A      0.348528  
      72A      0.349450    73A      0.358555    74A      0.366276  
      75A      0.371098    76A      0.382559    77A      0.388184  
      78A      0.393742    79A      0.398070    80A      0.406427  
      81A      0.413830    82A      0.417055    83A      0.420832  
      84A      0.431329    85A      0.436000    86A      0.439909  
      87A      0.457567    88A      0.466691    89A      0.471011  
      90A      0.479596    91A      0.481417    92A      0.494948  
      93A      0.500386    94A      0.507762    95A      0.512298  
      96A      0.514587    97A      0.516784    98A      0.526124  
      99A      0.539769   100A      0.543337   101A      0.545703  
     102A      0.566845   103A      0.569913   104A      0.581046  
     105A      0.601097   106A      0.604220   107A      0.621858  
     108A      0.628544   109A      0.633242   110A      0.641101  
     111A      0.651714   112A      0.652430   113A      0.667301  
     114A      0.682466   115A      0.712381   116A      0.712813  
     117A      0.731591   118A      0.734973   119A      0.737828  
     120A      0.742688   121A      0.754793   122A      0.772477  
     123A      0.788008   124A      0.791285   125A      0.793294  
     126A      0.799404   127A      0.814076   128A      0.821777  
     129A      0.848680   130A      0.850500   131A      0.851008  
     132A      0.858431   133A      0.867358   134A      0.875031  
     135A      0.883654   136A      0.884634   137A      0.903661  
     138A      0.914412   139A      0.925589   140A      0.935864  
     141A      0.947063   142A      0.968523   143A      0.969404  
     144A      0.975177   145A      0.989284   146A      0.992250  
     147A      0.998806   148A      1.021219   149A      1.026277  
     150A      1.029047   151A      1.037013   152A      1.045597  
     153A      1.058502   154A      1.060173   155A      1.071110  
     156A      1.076375   157A      1.089415   158A      1.090069  
     159A      1.094252   160A      1.104230   161A      1.117894  
     162A      1.137249   163A      1.139039   164A      1.146687  
     165A      1.164032   166A      1.167518   167A      1.168645  
     168A      1.172962   169A      1.192638   170A      1.193613  
     171A      1.198943   172A      1.216718   173A      1.219496  
     174A      1.226043   175A      1.239416   176A      1.240889  
     177A      1.249319   178A      1.284978   179A      1.286127  
     180A      1.299197   181A      1.325220   182A      1.330097  
     183A      1.331204   184A      1.345257   185A      1.348567  
     186A      1.362986   187A      1.364395   188A      1.384320  
     189A      1.405224   190A      1.447848   191A      1.450054  
     192A      1.461186   193A      1.467276   194A      1.477832  
     195A      1.485668   196A      1.499019   197A      1.516561  
     198A      1.520245   199A      1.539435   200A      1.564117  
     201A      1.565269   202A      1.578310   203A      1.590767  
     204A      1.596614   205A      1.604836   206A      1.615535  
     207A      1.625947   208A      1.633094   209A      1.660523  
     210A      1.665485   211A      1.673381   212A      1.678271  
     213A      1.703121   214A      1.718022   215A      1.724506  
     216A      1.745071   217A      1.763045   218A      1.768697  
     219A      1.777245   220A      1.809049   221A      1.812298  
     222A      1.822231   223A      1.825677   224A      1.830863  
     225A      1.861753   226A      1.872426   227A      1.878735  
     228A      1.918318   229A      1.936168   230A      1.940077  
     231A      1.957444   232A      1.966942   233A      1.978909  
     234A      1.996024   235A      1.996761   236A      2.017185  
     237A      2.019446   238A      2.042646   239A      2.055733  
     240A      2.062939   241A      2.066685   242A      2.108319  
     243A      2.135361   244A      2.142617   245A      2.167660  
     246A      2.175079   247A      2.179689   248A      2.193253  
     249A      2.197695   250A      2.215263   251A      2.240960  
     252A      2.256290   253A      2.282634   254A      2.312961  
     255A      2.315693   256A      2.328327   257A      2.332736  
     258A      2.381613   259A      2.392524   260A      2.424821  
     261A      2.447558   262A      2.456430   263A      2.482066  
     264A      2.508380   265A      2.539655   266A      2.550818  
     267A      2.559415   268A      2.567334   269A      2.596568  
     270A      2.659623   271A      2.661519   272A      2.689486  
     273A      2.714355   274A      2.721902   275A      2.739934  
     276A      2.784802   277A      2.796811   278A      2.821843  
     279A      2.827506   280A      2.846673   281A      2.869185  
     282A      2.946214   283A      2.956686   284A      2.994376  
     285A      3.038735   286A      3.041435   287A      3.083330  
     288A      3.103862   289A      3.170556   290A      3.171220  
     291A      3.181646   292A      3.225652   293A      3.276280  
     294A      3.278616   295A      3.323405   296A      3.346516  
     297A      3.351742   298A      3.383831   299A      3.390151  
     300A      3.446097   301A      3.478460   302A      3.487855  
     303A      3.508325   304A      3.510398   305A      3.512497  
     306A      3.559261   307A      3.584442   308A      3.589811  
     309A      3.612183   310A      3.616797   311A      3.639235  
     312A      3.649302   313A      3.690125   314A      3.696768  
     315A      3.721087   316A      3.738780   317A      3.747667  
     318A      3.758219   319A      3.800730   320A      3.817380  
     321A      3.818367   322A      3.859604   323A      3.862978  
     324A      3.895078   325A      3.900452   326A      3.903446  
     327A      3.907580   328A      3.938774   329A      3.961816  
     330A      3.986996   331A      4.015308   332A      4.028929  
     333A      4.029274   334A      4.046529   335A      4.080614  
     336A      4.088671   337A      4.117044   338A      4.145956  
     339A      4.157041   340A      4.171242   341A      4.172061  
     342A      4.189972   343A      4.196920   344A      4.220210  
     345A      4.228210   346A      4.240717   347A      4.299434  
     348A      4.299915   349A      4.314674   350A      4.331459  
     351A      4.358893   352A      4.399872   353A      4.420889  
     354A      4.432900   355A      4.439524   356A      4.448940  
     357A      4.474755   358A      4.490265   359A      4.508074  
     360A      4.549556   361A      4.577842   362A      4.594983  
     363A      4.623584   364A      4.638018   365A      4.662814  
     366A      4.683751   367A      4.715072   368A      4.736109  
     369A      4.765212   370A      4.794971   371A      4.801027  
     372A      4.833120   373A      4.845511   374A      4.877611  
     375A      4.880471   376A      4.941583   377A      4.948534  
     378A      4.957982   379A      4.992912   380A      5.001275  
     381A      5.012220   382A      5.039049   383A      5.042159  
     384A      5.068543   385A      5.104781   386A      5.108605  
     387A      5.145896   388A      5.176146   389A      5.178727  
     390A      5.203293   391A      5.232485   392A      5.271513  
     393A      5.321679   394A      5.339533   395A      5.370972  
     396A      5.374103   397A      5.382346   398A      5.433103  
     399A      5.433388   400A      5.472950   401A      5.553617  
     402A      5.553905   403A      5.563651   404A      5.580381  
     405A      5.612618   406A      5.658130   407A      5.664433  
     408A      5.677512   409A      5.682207   410A      5.750294  
     411A      5.752098   412A      5.786286   413A      5.852046  
     414A      5.880984   415A      5.889052   416A      5.896257  
     417A      5.976651   418A      5.997624   419A      6.032684  
     420A      6.069292   421A      6.085174   422A      6.149433  
     423A      6.150404   424A      6.195065   425A      6.234264  
     426A      6.288222   427A      6.360167   428A      6.398406  
     429A      6.579791   430A      6.594095   431A      6.640567  
     432A      6.643839   433A      6.698800   434A      6.778127  
     435A      6.821447   436A      6.843375   437A      6.938181  
     438A      6.940168   439A      7.079326   440A      7.116854  
     441A      7.146723   442A      7.162466   443A      7.290697  
     444A      7.386123   445A      7.562883   446A      7.569080  
     447A      7.602387   448A      7.735174   449A      7.834052  
     450A      7.873705   451A      7.959574   452A      8.346556  
     453A      8.578347   454A     15.076728   455A     16.257117  
     456A     17.091525   457A     18.089782   458A     19.004239  
     459A     19.413430   460A     20.507865  

    Final Occupation by Irrep:
              A 
    DOCC [    26 ]

  @DF-RHF Final Energy:  -338.72643394617097

   => Energetics <=

    Nuclear Repulsion Energy =            298.2484527878831955
    One-Electron Energy =               -1051.6461020043223016
    Two-Electron Energy =                 414.6712152702680783
    Total Energy =                       -338.7264339461709710

Computation Completed

*** tstop() called on node37.bme.utexas.edu at Tue Feb  2 17:56:19 2021
Module time:
	user time   =      98.54 seconds =       1.64 minutes
	system time =       7.02 seconds =       0.12 minutes
	total time  =         19 seconds =       0.32 minutes
Total time:
	user time   =      98.54 seconds =       1.64 minutes
	system time =       7.02 seconds =       0.12 minutes
	total time  =         19 seconds =       0.32 minutes
   => Loading Basis Set <=

    Name: (AUG-CC-PVTZ AUX)
    Role: RIFIT
    Keyword: DF_BASIS_MP2
    atoms 1    entry O          line   264 file /home/xy3866/psi4conda/share/psi4/basis/aug-cc-pvtz-ri.gbs 
    atoms 2-3  entry N          line   206 file /home/xy3866/psi4conda/share/psi4/basis/aug-cc-pvtz-ri.gbs 
    atoms 4-7  entry C          line   148 file /home/xy3866/psi4conda/share/psi4/basis/aug-cc-pvtz-ri.gbs 
    atoms 8-13 entry H          line    30 file /home/xy3866/psi4conda/share/psi4/basis/aug-cc-pvtz-ri.gbs 


*** tstart() called on node37.bme.utexas.edu
*** at Tue Feb  2 17:56:19 2021


  //>>>>>>>>>>>>>>>>>>>>>>>>>>>>>>>>>>>//
  //               DFMP2               //
  //<<<<<<<<<<<<<<<<<<<<<<<<<<<<<<<<<<<//

	 --------------------------------------------------------
	                          DF-MP2                         
	      2nd-Order Density-Fitted Moller-Plesset Theory     
	              RMP2 Wavefunction,   8 Threads             
	                                                         
	        Rob Parrish, Justin Turney, Andy Simmonett,      
	           Ed Hohenstein, and C. David Sherrill          
	 --------------------------------------------------------

   => Auxiliary Basis Set <=

  Basis Set: (AUG-CC-PVTZ AUX)
    Blend: AUG-CC-PVTZ-RI
    Number of shells: 280
    Number of basis function: 1018
    Number of Cartesian functions: 1282
    Spherical Harmonics?: true
    Max angular momentum: 4

	 --------------------------------------------------------
	                 NBF =   460, NAUX =  1018
	 --------------------------------------------------------
	   CLASS    FOCC     OCC    AOCC    AVIR     VIR    FVIR
	   PAIRS       0      26      26     434     434       0
	 --------------------------------------------------------

  DFHelper Memory: AOs need 1.602 GiB; user supplied 22.352 GiB. Using in-core AOs.


         ------------------------------------------------------------
                                     CPHF                           
                                  Rob Parrish                       
         ------------------------------------------------------------

  ==> Geometry <==

    Molecular point group: c1
    Full point group: C1

    Geometry (in Angstrom), charge = 0, multiplicity = 1:

       Center              X                  Y                   Z               Mass       
    ------------   -----------------  -----------------  -----------------  -----------------
         O           -1.487838597300    -0.649131567785    -0.000004965041    15.994914619570
         N            0.809396402700    -1.025385567785    -0.000023965041    14.003074004430
         N            2.022184402700    -0.419475567785    -0.000080965041    14.003074004430
         C           -0.227153597300    -0.149268567785    -0.000024965041    12.000000000000
         C            0.323389402700     1.122569432215    -0.000055965041    12.000000000000
         C            1.517238702700     0.921474032215    -0.000087765041    12.000000000000
         C           -2.497076597300     0.365403432215     0.000239034959    12.000000000000
         H           -0.192259597300     2.070943432215    -0.000059965041     1.007825032230
         H            0.747405402700    -2.035487567785    -0.000010965041     1.007825032230
         H            2.514909402700     1.616752432215    -0.000126965041     1.007825032230
         H           -3.447732597300    -0.165363567785     0.000316034959     1.007825032230
         H           -2.415787597300     0.989687432215    -0.894876965041     1.007825032230
         H           -2.415533597300     0.989507432215     0.895458034959     1.007825032230

  Nuclear repulsion =  298.248452787883195
  Reference energy  = -338.726433946170971

  ==> Basis Set <==

  Basis Set: AUG-CC-PVTZ
    Blend: AUG-CC-PVTZ
    Number of shells: 152
    Number of basis function: 460
    Number of Cartesian functions: 535
    Spherical Harmonics?: true
    Max angular momentum: 3

  ==> CGRSolver (by Rob Parrish) <==

   Number of roots    =         1
   Preconditioning    =    JACOBI
   Convergence cutoff =     1E-06
   Maximum iterations =       100

  ==> CPHFRHamiltonian (by Rob Parrish) <== 

  ==> MemDFJK: Density-Fitted J/K Matrices <==

    J tasked:                   Yes
    K tasked:                   Yes
    wK tasked:                   No
    OpenMP threads:               8
    Memory [MiB]:             22888
    Algorithm:                 Core
    Schwarz Cutoff:           1E-12
    Mask sparsity (%):       2.7495
    Fitting Condition:        1E-10

   => Auxiliary Basis Set <=

  Basis Set: (AUG-CC-PVTZ AUX)
    Blend: AUG-CC-PVTZ-JKFIT
    Number of shells: 294
    Number of basis function: 1004
    Number of Cartesian functions: 1247
    Spherical Harmonics?: true
    Max angular momentum: 4

  ==> CPHF Iterations <==

  => Iterations <=

             Iter  Converged  Remaining    Residual
  CGR           1          0          1   1.169E-01
  CGR           2          0          1   5.478E-02
  CGR           3          0          1   2.936E-02
  CGR           4          0          1   1.166E-02
  CGR           5          0          1   4.568E-03
  CGR           6          0          1   1.622E-03
  CGR           7          0          1   4.821E-04
  CGR           8          0          1   1.812E-04
  CGR           9          0          1   7.071E-05
  CGR          10          0          1   2.622E-05
  CGR          11          0          1   9.595E-06
  CGR          12          0          1   2.888E-06
  CGR          13          1          0   9.242E-07

    CGRSolver converged.

	-----------------------------------------------------------
	 ==================> DF-MP2 Energies <==================== 
	-----------------------------------------------------------
	 Reference Energy          =    -338.7264339461709710 [Eh]
	 Singles Energy            =      -0.0000000000000000 [Eh]
	 Same-Spin Energy          =      -0.3576924020085697 [Eh]
	 Opposite-Spin Energy      =      -1.0909097780242107 [Eh]
	 Correlation Energy        =      -1.4486021800327804 [Eh]
	 Total Energy              =    -340.1750361262037359 [Eh]
	-----------------------------------------------------------
	 ================> DF-SCS-MP2 Energies <================== 
	-----------------------------------------------------------
	 SCS Same-Spin Scale       =       0.3333333333333333 [-]
	 SCS Opposite-Spin Scale   =       1.2000000000000000 [-]
	 SCS Same-Spin Energy      =      -0.1192308006695232 [Eh]
	 SCS Opposite-Spin Energy  =      -1.3090917336290528 [Eh]
	 SCS Correlation Energy    =      -1.4283225342985761 [Eh]
	 SCS Total Energy          =    -340.1547564804695298 [Eh]
	-----------------------------------------------------------



Properties will be evaluated at  -0.000000,   0.000000,   0.000000 [a0]

Properties computed using the MP2 density matrix

  Nuclear Dipole Moment: [e a0]
     X:    -4.8987      Y:     3.2504      Z:     0.0007

  Electronic Dipole Moment: [e a0]
     X:     3.5353      Y:    -3.0114      Z:    -0.0005

  Dipole Moment: [e a0]
     X:    -1.3633      Y:     0.2390      Z:     0.0001     Total:     1.3841

  Dipole Moment: [D]
     X:    -3.4652      Y:     0.6075      Z:     0.0004     Total:     3.5180


*** tstop() called on node37.bme.utexas.edu at Tue Feb  2 17:57:26 2021
Module time:
	user time   =     392.97 seconds =       6.55 minutes
	system time =      42.44 seconds =       0.71 minutes
	total time  =         67 seconds =       1.12 minutes
Total time:
	user time   =     491.65 seconds =       8.19 minutes
	system time =      49.46 seconds =       0.82 minutes
	total time  =         86 seconds =       1.43 minutes

    Psi4 stopped on: Tuesday, 02 February 2021 05:57PM
    Psi4 wall time for execution: 0:01:26.48

*** Psi4 exiting successfully. Buy a developer a beer!
