
    -----------------------------------------------------------------------
          Psi4: An Open-Source Ab Initio Electronic Structure Package
                               Psi4 1.3.2 release

                         Git: Rev {HEAD} ecbda83 


    R. M. Parrish, L. A. Burns, D. G. A. Smith, A. C. Simmonett,
    A. E. DePrince III, E. G. Hohenstein, U. Bozkaya, A. Yu. Sokolov,
    R. Di Remigio, R. M. Richard, J. F. Gonthier, A. M. James,
    H. R. McAlexander, A. Kumar, M. Saitow, X. Wang, B. P. Pritchard,
    P. Verma, H. F. Schaefer III, K. Patkowski, R. A. King, E. F. Valeev,
    F. A. Evangelista, J. M. Turney, T. D. Crawford, and C. D. Sherrill,
    J. Chem. Theory Comput. 13(7) pp 3185--3197 (2017).
    (doi: 10.1021/acs.jctc.7b00174)


                         Additional Contributions by
    P. Kraus, H. Kruse, M. H. Lechner, M. C. Schieber, R. A. Shaw,
    A. Alenaizan, R. Galvelis, Z. L. Glick, S. Lehtola, and J. P. Misiewicz

    -----------------------------------------------------------------------


    Psi4 started on: Tuesday, 02 February 2021 04:36PM

    Process ID: 24197
    Host:       node37.bme.utexas.edu
    PSIDATADIR: /home/xy3866/psi4conda/share/psi4
    Memory:     500.0 MiB
    Threads:    8
    
  ==> Input File <==

--------------------------------------------------------------------------
#psi4
#
memory 32 gb

molecule  {
0 1
  O       -1.4607440    -0.6783760    -0.0000110
  N        0.8364910    -1.0546300    -0.0000300
  N        2.1842882    -0.4093902    -0.0000914
  C       -0.2000590    -0.1785130    -0.0000310
  C        0.3504840     1.0933250    -0.0000620
  C        1.7415550     0.8590090    -0.0000990
  C       -2.4699820     0.3361590     0.0002330
  H       -0.1651650     2.0416990    -0.0000660
  H        0.7745000    -2.0647320    -0.0000170
  H        2.5420040     1.5875080    -0.0001330
  H       -3.4206380    -0.1946080     0.0003100
  H       -2.3886930     0.9604430    -0.8948830
  H       -2.3884390     0.9602630     0.8954520
units angstrom
no_reorient  #important for SAPT in psi4, default
symmetry c1  #important for SAPT in psi4, default
}

set PROPERTIES_ORIGIN ["COM"]
properties('MP2/aug-cc-pvtz', properties = ['dipole'])
--------------------------------------------------------------------------

  Memory set to  29.802 GiB by Python driver.
    SCF Algorithm Type (re)set to DF.

*** tstart() called on node37.bme.utexas.edu
*** at Tue Feb  2 16:36:02 2021

   => Loading Basis Set <=

    Name: AUG-CC-PVTZ
    Role: ORBITAL
    Keyword: BASIS
    atoms 1    entry O          line   327 file /home/xy3866/psi4conda/share/psi4/basis/aug-cc-pvtz.gbs 
    atoms 2-3  entry N          line   281 file /home/xy3866/psi4conda/share/psi4/basis/aug-cc-pvtz.gbs 
    atoms 4-7  entry C          line   235 file /home/xy3866/psi4conda/share/psi4/basis/aug-cc-pvtz.gbs 
    atoms 8-13 entry H          line    36 file /home/xy3866/psi4conda/share/psi4/basis/aug-cc-pvtz.gbs 


         ---------------------------------------------------------
                                   SCF
               by Justin Turney, Rob Parrish, Andy Simmonett
                          and Daniel G. A. Smith
                              RHF Reference
                        8 Threads,  30517 MiB Core
         ---------------------------------------------------------

  ==> Geometry <==

    Molecular point group: c1
    Full point group: C1

    Geometry (in Angstrom), charge = 0, multiplicity = 1:

       Center              X                  Y                   Z               Mass       
    ------------   -----------------  -----------------  -----------------  -----------------
         O           -1.531258184259    -0.650682755776    -0.000003700217    15.994914619570
         N            0.765976815741    -1.026936755776    -0.000022700217    14.003074004430
         N            2.113774015741    -0.381696955776    -0.000084100217    14.003074004430
         C           -0.270573184259    -0.150819755776    -0.000023700217    12.000000000000
         C            0.279969815741     1.121018244224    -0.000054700217    12.000000000000
         C            1.671040815741     0.886702244224    -0.000091700217    12.000000000000
         C           -2.540496184259     0.363852244224     0.000240299783    12.000000000000
         H           -0.235679184259     2.069392244224    -0.000058700217     1.007825032230
         H            0.703985815741    -2.037038755776    -0.000009700217     1.007825032230
         H            2.471489815741     1.615201244224    -0.000125700217     1.007825032230
         H           -3.491152184259    -0.166914755776     0.000317299783     1.007825032230
         H           -2.459207184259     0.988136244224    -0.894875700217     1.007825032230
         H           -2.458953184259     0.987956244224     0.895459299783     1.007825032230

  Running in c1 symmetry.

  Rotational constants: A =      0.26069  B =      0.06640  C =      0.05346 [cm^-1]
  Rotational constants: A =   7815.25902  B =   1990.53186  C =   1602.71537 [MHz]
  Nuclear repulsion =  292.530803615801858

  Charge       = 0
  Multiplicity = 1
  Electrons    = 52
  Nalpha       = 26
  Nbeta        = 26

  ==> Algorithm <==

  SCF Algorithm Type is DF.
  DIIS enabled.
  MOM disabled.
  Fractional occupation disabled.
  Guess Type is SAD.
  Energy threshold   = 1.00e-10
  Density threshold  = 1.00e-10
  Integral threshold = 0.00e+00

  ==> Primary Basis <==

  Basis Set: AUG-CC-PVTZ
    Blend: AUG-CC-PVTZ
    Number of shells: 152
    Number of basis function: 460
    Number of Cartesian functions: 535
    Spherical Harmonics?: true
    Max angular momentum: 3

   => Loading Basis Set <=

    Name: (AUG-CC-PVTZ AUX)
    Role: JKFIT
    Keyword: DF_BASIS_SCF
    atoms 1    entry O          line   286 file /home/xy3866/psi4conda/share/psi4/basis/aug-cc-pvtz-jkfit.gbs 
    atoms 2-3  entry N          line   224 file /home/xy3866/psi4conda/share/psi4/basis/aug-cc-pvtz-jkfit.gbs 
    atoms 4-7  entry C          line   162 file /home/xy3866/psi4conda/share/psi4/basis/aug-cc-pvtz-jkfit.gbs 
    atoms 8-13 entry H          line    70 file /home/xy3866/psi4conda/share/psi4/basis/aug-cc-pvtz-jkfit.gbs 

  ==> Pre-Iterations <==

   -------------------------------------------------------
    Irrep   Nso     Nmo     Nalpha   Nbeta   Ndocc  Nsocc
   -------------------------------------------------------
     A        460     460       0       0       0       0
   -------------------------------------------------------
    Total     460     460      26      26      26       0
   -------------------------------------------------------

  ==> Integral Setup <==

  DFHelper Memory: AOs need 1.598 GiB; user supplied 22.352 GiB. Using in-core AOs.

  ==> MemDFJK: Density-Fitted J/K Matrices <==

    J tasked:                   Yes
    K tasked:                   Yes
    wK tasked:                   No
    OpenMP threads:               8
    Memory [MiB]:             22888
    Algorithm:                 Core
    Schwarz Cutoff:           1E-12
    Mask sparsity (%):       2.9868
    Fitting Condition:        1E-10

   => Auxiliary Basis Set <=

  Basis Set: (AUG-CC-PVTZ AUX)
    Blend: AUG-CC-PVTZ-JKFIT
    Number of shells: 294
    Number of basis function: 1004
    Number of Cartesian functions: 1247
    Spherical Harmonics?: true
    Max angular momentum: 4

  Minimum eigenvalue in the overlap matrix is 3.9603162523E-06.
  Using Symmetric Orthogonalization.

  SCF Guess: Superposition of Atomic Densities via on-the-fly atomic UHF.

  ==> Iterations <==

                           Total Energy        Delta E     RMS |[F,P]|

   @DF-RHF iter SAD:  -338.01173402279096   -3.38012e+02   0.00000e+00 
   @DF-RHF iter   1:  -338.62106782028837   -6.09334e-01   1.14198e-03 DIIS
   @DF-RHF iter   2:  -338.75653122169086   -1.35463e-01   4.81499e-04 DIIS
   @DF-RHF iter   3:  -338.77893699733198   -2.24058e-02   1.18809e-04 DIIS
   @DF-RHF iter   4:  -338.78109540287448   -2.15841e-03   4.35966e-05 DIIS
   @DF-RHF iter   5:  -338.78134289638115   -2.47494e-04   1.33408e-05 DIIS
   @DF-RHF iter   6:  -338.78137968390132   -3.67875e-05   5.11713e-06 DIIS
   @DF-RHF iter   7:  -338.78138794161453   -8.25771e-06   2.40482e-06 DIIS
   @DF-RHF iter   8:  -338.78138972533009   -1.78372e-06   8.07701e-07 DIIS
   @DF-RHF iter   9:  -338.78139000642028   -2.81090e-07   3.98246e-07 DIIS
   @DF-RHF iter  10:  -338.78139004208390   -3.56636e-08   1.33954e-07 DIIS
   @DF-RHF iter  11:  -338.78139004874015   -6.65625e-09   5.41626e-08 DIIS
   @DF-RHF iter  12:  -338.78139004971968   -9.79526e-10   2.15590e-08 DIIS
   @DF-RHF iter  13:  -338.78139004987270   -1.53022e-10   8.74126e-09 DIIS
   @DF-RHF iter  14:  -338.78139004990840   -3.56977e-11   4.10576e-09 DIIS
   @DF-RHF iter  15:  -338.78139004991539   -6.99174e-12   1.82830e-09 DIIS
   @DF-RHF iter  16:  -338.78139004991618   -7.95808e-13   5.66262e-10 DIIS
   @DF-RHF iter  17:  -338.78139004991533    8.52651e-13   2.30207e-10 DIIS
   @DF-RHF iter  18:  -338.78139004991590   -5.68434e-13   7.76267e-11 DIIS
  Energy and wave function converged.


  ==> Post-Iterations <==

    Orbital Energies [Eh]
    ---------------------

    Doubly Occupied:                                                      

       1A    -20.619508     2A    -15.618028     3A    -15.594190  
       4A    -11.355662     5A    -11.303453     6A    -11.268393  
       7A    -11.220996     8A     -1.443523     9A     -1.312756  
      10A     -1.100187    11A     -1.038878    12A     -0.967533  
      13A     -0.814250    14A     -0.782426    15A     -0.756031  
      16A     -0.681549    17A     -0.651900    18A     -0.620109  
      19A     -0.595523    20A     -0.583863    21A     -0.560860  
      22A     -0.529581    23A     -0.505247    24A     -0.469560  
      25A     -0.371217    26A     -0.333034  

    Virtual:                                                              

      27A      0.023924    28A      0.035162    29A      0.039166  
      30A      0.043225    31A      0.049059    32A      0.062095  
      33A      0.076496    34A      0.099415    35A      0.100355  
      36A      0.102812    37A      0.110915    38A      0.117734  
      39A      0.124937    40A      0.124973    41A      0.128845  
      42A      0.136359    43A      0.142222    44A      0.150602  
      45A      0.151130    46A      0.158541    47A      0.163572  
      48A      0.176904    49A      0.181599    50A      0.187398  
      51A      0.197409    52A      0.205274    53A      0.212843  
      54A      0.225235    55A      0.237803    56A      0.239189  
      57A      0.245216    58A      0.248183    59A      0.259197  
      60A      0.268437    61A      0.271053    62A      0.285756  
      63A      0.290861    64A      0.301737    65A      0.305291  
      66A      0.316379    67A      0.318260    68A      0.324644  
      69A      0.337603    70A      0.338107    71A      0.346581  
      72A      0.352987    73A      0.358634    74A      0.365898  
      75A      0.370660    76A      0.373259    77A      0.375773  
      78A      0.390531    79A      0.392587    80A      0.397910  
      81A      0.411101    82A      0.415518    83A      0.425810  
      84A      0.430310    85A      0.437946    86A      0.440408  
      87A      0.460031    88A      0.460777    89A      0.468682  
      90A      0.480847    91A      0.485438    92A      0.487574  
      93A      0.502508    94A      0.503667    95A      0.506238  
      96A      0.517305    97A      0.523996    98A      0.527489  
      99A      0.540221   100A      0.542607   101A      0.544580  
     102A      0.555469   103A      0.567605   104A      0.585658  
     105A      0.601429   106A      0.613028   107A      0.618794  
     108A      0.620694   109A      0.639402   110A      0.643378  
     111A      0.645081   112A      0.648938   113A      0.664444  
     114A      0.676848   115A      0.701354   116A      0.711828  
     117A      0.724396   118A      0.728358   119A      0.736283  
     120A      0.741722   121A      0.754648   122A      0.774100  
     123A      0.777288   124A      0.785028   125A      0.790173  
     126A      0.806534   127A      0.818313   128A      0.828920  
     129A      0.840790   130A      0.844339   131A      0.853880  
     132A      0.858083   133A      0.871680   134A      0.879507  
     135A      0.883056   136A      0.887497   137A      0.902252  
     138A      0.909222   139A      0.930456   140A      0.937627  
     141A      0.944779   142A      0.950060   143A      0.971364  
     144A      0.974394   145A      0.980516   146A      0.991313  
     147A      0.997003   148A      1.019529   149A      1.022473  
     150A      1.024235   151A      1.030715   152A      1.033256  
     153A      1.038085   154A      1.056383   155A      1.062078  
     156A      1.070772   157A      1.079797   158A      1.087339  
     159A      1.093788   160A      1.095613   161A      1.113832  
     162A      1.118917   163A      1.129045   164A      1.147312  
     165A      1.157423   166A      1.159767   167A      1.162099  
     168A      1.171803   169A      1.189283   170A      1.194222  
     171A      1.197274   172A      1.208476   173A      1.215485  
     174A      1.220628   175A      1.225977   176A      1.251142  
     177A      1.254434   178A      1.281450   179A      1.281725  
     180A      1.292340   181A      1.320319   182A      1.322125  
     183A      1.336023   184A      1.338155   185A      1.348306  
     186A      1.353636   187A      1.364975   188A      1.371952  
     189A      1.405776   190A      1.419007   191A      1.433809  
     192A      1.454962   193A      1.467206   194A      1.468225  
     195A      1.477843   196A      1.509332   197A      1.510884  
     198A      1.523664   199A      1.525691   200A      1.558164  
     201A      1.561168   202A      1.573914   203A      1.576571  
     204A      1.587036   205A      1.594329   206A      1.602725  
     207A      1.625074   208A      1.634160   209A      1.649631  
     210A      1.650667   211A      1.653926   212A      1.674326  
     213A      1.699484   214A      1.718066   215A      1.721567  
     216A      1.722149   217A      1.761676   218A      1.766720  
     219A      1.779435   220A      1.786342   221A      1.807153  
     222A      1.809670   223A      1.822350   224A      1.833091  
     225A      1.848556   226A      1.863670   227A      1.880789  
     228A      1.903801   229A      1.936270   230A      1.946011  
     231A      1.975254   232A      1.975564   233A      1.982445  
     234A      1.991345   235A      1.999309   236A      2.005159  
     237A      2.034586   238A      2.036225   239A      2.043416  
     240A      2.062546   241A      2.068885   242A      2.073807  
     243A      2.109257   244A      2.136038   245A      2.145213  
     246A      2.149596   247A      2.164986   248A      2.186815  
     249A      2.187742   250A      2.209452   251A      2.218785  
     252A      2.254686   253A      2.271545   254A      2.284101  
     255A      2.292599   256A      2.316437   257A      2.333237  
     258A      2.374222   259A      2.390198   260A      2.416144  
     261A      2.456764   262A      2.459142   263A      2.482065  
     264A      2.491743   265A      2.499752   266A      2.517158  
     267A      2.548724   268A      2.551989   269A      2.593127  
     270A      2.627925   271A      2.646053   272A      2.654270  
     273A      2.666767   274A      2.706279   275A      2.728497  
     276A      2.737996   277A      2.752164   278A      2.788272  
     279A      2.830348   280A      2.852866   281A      2.857353  
     282A      2.888912   283A      2.941162   284A      2.943698  
     285A      3.035597   286A      3.036090   287A      3.062960  
     288A      3.074001   289A      3.143692   290A      3.159354  
     291A      3.169191   292A      3.195458   293A      3.241441  
     294A      3.254753   295A      3.295637   296A      3.323414  
     297A      3.355586   298A      3.363470   299A      3.385596  
     300A      3.443482   301A      3.443602   302A      3.457826  
     303A      3.461770   304A      3.475556   305A      3.488801  
     306A      3.528253   307A      3.550995   308A      3.555391  
     309A      3.604076   310A      3.614793   311A      3.626880  
     312A      3.631793   313A      3.687110   314A      3.692218  
     315A      3.711604   316A      3.713856   317A      3.741254  
     318A      3.750253   319A      3.776749   320A      3.794184  
     321A      3.817059   322A      3.825290   323A      3.830521  
     324A      3.859630   325A      3.875125   326A      3.892072  
     327A      3.918998   328A      3.944759   329A      3.944911  
     330A      3.974896   331A      3.979124   332A      4.007212  
     333A      4.019141   334A      4.027276   335A      4.057130  
     336A      4.066462   337A      4.082116   338A      4.134479  
     339A      4.137566   340A      4.141552   341A      4.159808  
     342A      4.178780   343A      4.191800   344A      4.211530  
     345A      4.220485   346A      4.233872   347A      4.265333  
     348A      4.278570   349A      4.298033   350A      4.348455  
     351A      4.356564   352A      4.369894   353A      4.385612  
     354A      4.417366   355A      4.418678   356A      4.436962  
     357A      4.457962   358A      4.462646   359A      4.490513  
     360A      4.545192   361A      4.561642   362A      4.571674  
     363A      4.608108   364A      4.622679   365A      4.670412  
     366A      4.675083   367A      4.703043   368A      4.731801  
     369A      4.749115   370A      4.789242   371A      4.797268  
     372A      4.802945   373A      4.838415   374A      4.838651  
     375A      4.855060   376A      4.929338   377A      4.940743  
     378A      4.960117   379A      4.979171   380A      4.991205  
     381A      5.004375   382A      5.013355   383A      5.037730  
     384A      5.043815   385A      5.054989   386A      5.075850  
     387A      5.091418   388A      5.128072   389A      5.140737  
     390A      5.185604   391A      5.219277   392A      5.283168  
     393A      5.296252   394A      5.311594   395A      5.331358  
     396A      5.352558   397A      5.367203   398A      5.381045  
     399A      5.420365   400A      5.446301   401A      5.483481  
     402A      5.546852   403A      5.582295   404A      5.593966  
     405A      5.630822   406A      5.646287   407A      5.658272  
     408A      5.667079   409A      5.681381   410A      5.721543  
     411A      5.728129   412A      5.764229   413A      5.802992  
     414A      5.807114   415A      5.845458   416A      5.889434  
     417A      5.893179   418A      5.933621   419A      6.019780  
     420A      6.038527   421A      6.055280   422A      6.069925  
     423A      6.132017   424A      6.136711   425A      6.176064  
     426A      6.222836   427A      6.296038   428A      6.385283  
     429A      6.465234   430A      6.562842   431A      6.571428  
     432A      6.625200   433A      6.644660   434A      6.735734  
     435A      6.768703   436A      6.830962   437A      6.897490  
     438A      6.933913   439A      6.982601   440A      7.040168  
     441A      7.112034   442A      7.147760   443A      7.148981  
     444A      7.321954   445A      7.393833   446A      7.529228  
     447A      7.562394   448A      7.707834   449A      7.789796  
     450A      7.864570   451A      7.950037   452A      8.331878  
     453A      8.554791   454A     14.821292   455A     16.050194  
     456A     16.808082   457A     16.866479   458A     18.016068  
     459A     18.505249   460A     19.132561  

    Final Occupation by Irrep:
              A 
    DOCC [    26 ]

  @DF-RHF Final Energy:  -338.78139004991590

   => Energetics <=

    Nuclear Repulsion Energy =            292.5308036158018581
    One-Electron Energy =               -1040.4278738779248670
    Two-Electron Energy =                 409.1156802122070530
    Total Energy =                       -338.7813900499158990

Computation Completed

*** tstop() called on node37.bme.utexas.edu at Tue Feb  2 16:36:22 2021
Module time:
	user time   =     130.60 seconds =       2.18 minutes
	system time =       9.34 seconds =       0.16 minutes
	total time  =         20 seconds =       0.33 minutes
Total time:
	user time   =     130.60 seconds =       2.18 minutes
	system time =       9.34 seconds =       0.16 minutes
	total time  =         20 seconds =       0.33 minutes
   => Loading Basis Set <=

    Name: (AUG-CC-PVTZ AUX)
    Role: RIFIT
    Keyword: DF_BASIS_MP2
    atoms 1    entry O          line   264 file /home/xy3866/psi4conda/share/psi4/basis/aug-cc-pvtz-ri.gbs 
    atoms 2-3  entry N          line   206 file /home/xy3866/psi4conda/share/psi4/basis/aug-cc-pvtz-ri.gbs 
    atoms 4-7  entry C          line   148 file /home/xy3866/psi4conda/share/psi4/basis/aug-cc-pvtz-ri.gbs 
    atoms 8-13 entry H          line    30 file /home/xy3866/psi4conda/share/psi4/basis/aug-cc-pvtz-ri.gbs 


*** tstart() called on node37.bme.utexas.edu
*** at Tue Feb  2 16:36:22 2021


  //>>>>>>>>>>>>>>>>>>>>>>>>>>>>>>>>>>>//
  //               DFMP2               //
  //<<<<<<<<<<<<<<<<<<<<<<<<<<<<<<<<<<<//

	 --------------------------------------------------------
	                          DF-MP2                         
	      2nd-Order Density-Fitted Moller-Plesset Theory     
	              RMP2 Wavefunction,   8 Threads             
	                                                         
	        Rob Parrish, Justin Turney, Andy Simmonett,      
	           Ed Hohenstein, and C. David Sherrill          
	 --------------------------------------------------------

   => Auxiliary Basis Set <=

  Basis Set: (AUG-CC-PVTZ AUX)
    Blend: AUG-CC-PVTZ-RI
    Number of shells: 280
    Number of basis function: 1018
    Number of Cartesian functions: 1282
    Spherical Harmonics?: true
    Max angular momentum: 4

	 --------------------------------------------------------
	                 NBF =   460, NAUX =  1018
	 --------------------------------------------------------
	   CLASS    FOCC     OCC    AOCC    AVIR     VIR    FVIR
	   PAIRS       0      26      26     434     434       0
	 --------------------------------------------------------

  DFHelper Memory: AOs need 1.598 GiB; user supplied 22.352 GiB. Using in-core AOs.


         ------------------------------------------------------------
                                     CPHF                           
                                  Rob Parrish                       
         ------------------------------------------------------------

  ==> Geometry <==

    Molecular point group: c1
    Full point group: C1

    Geometry (in Angstrom), charge = 0, multiplicity = 1:

       Center              X                  Y                   Z               Mass       
    ------------   -----------------  -----------------  -----------------  -----------------
         O           -1.531258184259    -0.650682755776    -0.000003700217    15.994914619570
         N            0.765976815741    -1.026936755776    -0.000022700217    14.003074004430
         N            2.113774015741    -0.381696955776    -0.000084100217    14.003074004430
         C           -0.270573184259    -0.150819755776    -0.000023700217    12.000000000000
         C            0.279969815741     1.121018244224    -0.000054700217    12.000000000000
         C            1.671040815741     0.886702244224    -0.000091700217    12.000000000000
         C           -2.540496184259     0.363852244224     0.000240299783    12.000000000000
         H           -0.235679184259     2.069392244224    -0.000058700217     1.007825032230
         H            0.703985815741    -2.037038755776    -0.000009700217     1.007825032230
         H            2.471489815741     1.615201244224    -0.000125700217     1.007825032230
         H           -3.491152184259    -0.166914755776     0.000317299783     1.007825032230
         H           -2.459207184259     0.988136244224    -0.894875700217     1.007825032230
         H           -2.458953184259     0.987956244224     0.895459299783     1.007825032230

  Nuclear repulsion =  292.530803615801858
  Reference energy  = -338.781390049915899

  ==> Basis Set <==

  Basis Set: AUG-CC-PVTZ
    Blend: AUG-CC-PVTZ
    Number of shells: 152
    Number of basis function: 460
    Number of Cartesian functions: 535
    Spherical Harmonics?: true
    Max angular momentum: 3

  ==> CGRSolver (by Rob Parrish) <==

   Number of roots    =         1
   Preconditioning    =    JACOBI
   Convergence cutoff =     1E-06
   Maximum iterations =       100

  ==> CPHFRHamiltonian (by Rob Parrish) <== 

  ==> MemDFJK: Density-Fitted J/K Matrices <==

    J tasked:                   Yes
    K tasked:                   Yes
    wK tasked:                   No
    OpenMP threads:               8
    Memory [MiB]:             22888
    Algorithm:                 Core
    Schwarz Cutoff:           1E-12
    Mask sparsity (%):       2.9868
    Fitting Condition:        1E-10

   => Auxiliary Basis Set <=

  Basis Set: (AUG-CC-PVTZ AUX)
    Blend: AUG-CC-PVTZ-JKFIT
    Number of shells: 294
    Number of basis function: 1004
    Number of Cartesian functions: 1247
    Spherical Harmonics?: true
    Max angular momentum: 4

  ==> CPHF Iterations <==

  => Iterations <=

             Iter  Converged  Remaining    Residual
  CGR           1          0          1   1.289E-01
  CGR           2          0          1   5.150E-02
  CGR           3          0          1   2.509E-02
  CGR           4          0          1   8.253E-03
  CGR           5          0          1   3.394E-03
  CGR           6          0          1   1.567E-03
  CGR           7          0          1   5.764E-04
  CGR           8          0          1   2.708E-04
  CGR           9          0          1   1.006E-04
  CGR          10          0          1   3.477E-05
  CGR          11          0          1   1.239E-05
  CGR          12          0          1   3.276E-06
  CGR          13          0          1   1.189E-06
  CGR          14          1          0   3.242E-07

    CGRSolver converged.

	-----------------------------------------------------------
	 ==================> DF-MP2 Energies <==================== 
	-----------------------------------------------------------
	 Reference Energy          =    -338.7813900499158990 [Eh]
	 Singles Energy            =      -0.0000000000000000 [Eh]
	 Same-Spin Energy          =      -0.3528145054899459 [Eh]
	 Opposite-Spin Energy      =      -1.0864884434196043 [Eh]
	 Correlation Energy        =      -1.4393029489095501 [Eh]
	 Total Energy              =    -340.2206929988254274 [Eh]
	-----------------------------------------------------------
	 ================> DF-SCS-MP2 Energies <================== 
	-----------------------------------------------------------
	 SCS Same-Spin Scale       =       0.3333333333333333 [-]
	 SCS Opposite-Spin Scale   =       1.2000000000000000 [-]
	 SCS Same-Spin Energy      =      -0.1176048351633153 [Eh]
	 SCS Opposite-Spin Energy  =      -1.3037861321035251 [Eh]
	 SCS Correlation Energy    =      -1.4213909672668403 [Eh]
	 SCS Total Energy          =    -340.2027810171827582 [Eh]
	-----------------------------------------------------------



Properties will be evaluated at  -0.000000,   0.000000,   0.000000 [a0]

Properties computed using the MP2 density matrix

  Nuclear Dipole Moment: [e a0]
     X:    -5.1432      Y:     3.2415      Z:     0.0007

  Electronic Dipole Moment: [e a0]
     X:     3.8429      Y:    -2.9329      Z:    -0.0005

  Dipole Moment: [e a0]
     X:    -1.3003      Y:     0.3087      Z:     0.0001     Total:     1.3365

  Dipole Moment: [D]
     X:    -3.3051      Y:     0.7846      Z:     0.0003     Total:     3.3969


*** tstop() called on node37.bme.utexas.edu at Tue Feb  2 16:37:31 2021
Module time:
	user time   =     363.15 seconds =       6.05 minutes
	system time =      39.50 seconds =       0.66 minutes
	total time  =         69 seconds =       1.15 minutes
Total time:
	user time   =     493.92 seconds =       8.23 minutes
	system time =      48.84 seconds =       0.81 minutes
	total time  =         89 seconds =       1.48 minutes

    Psi4 stopped on: Tuesday, 02 February 2021 04:37PM
    Psi4 wall time for execution: 0:01:29.12

*** Psi4 exiting successfully. Buy a developer a beer!
