
    -----------------------------------------------------------------------
          Psi4: An Open-Source Ab Initio Electronic Structure Package
                               Psi4 1.3.2 release

                         Git: Rev {HEAD} ecbda83 


    R. M. Parrish, L. A. Burns, D. G. A. Smith, A. C. Simmonett,
    A. E. DePrince III, E. G. Hohenstein, U. Bozkaya, A. Yu. Sokolov,
    R. Di Remigio, R. M. Richard, J. F. Gonthier, A. M. James,
    H. R. McAlexander, A. Kumar, M. Saitow, X. Wang, B. P. Pritchard,
    P. Verma, H. F. Schaefer III, K. Patkowski, R. A. King, E. F. Valeev,
    F. A. Evangelista, J. M. Turney, T. D. Crawford, and C. D. Sherrill,
    J. Chem. Theory Comput. 13(7) pp 3185--3197 (2017).
    (doi: 10.1021/acs.jctc.7b00174)


                         Additional Contributions by
    P. Kraus, H. Kruse, M. H. Lechner, M. C. Schieber, R. A. Shaw,
    A. Alenaizan, R. Galvelis, Z. L. Glick, S. Lehtola, and J. P. Misiewicz

    -----------------------------------------------------------------------


    Psi4 started on: Tuesday, 17 November 2020 07:25PM

    Process ID: 7217
    Host:       node35.bme.utexas.edu
    PSIDATADIR: /home/xy3866/psi4conda/share/psi4
    Memory:     500.0 MiB
    Threads:    8
    
  ==> Input File <==

--------------------------------------------------------------------------
#psi4
#
memory 32 gb

molecule  {
0 1
  N       -1.7893040    -0.1617730    -0.0001110
  N       -0.2713240    -1.8496560    -0.0082220
  N       -0.2672930     1.7497910     0.0010540
  N        2.0532340     1.0361840    -0.0078740
  N        2.7268170    -1.1967150     0.0786200
  C       -0.5852696     0.4033133     0.0051210
  C        0.3666280    -0.6257540     0.0082110
  C       -1.5569310    -1.5157420    -0.0063070
  C        1.7375174    -0.3129664     0.0017388
  C       -3.0654680     0.5328540     0.0028660
  C        1.0578830     1.9506280    -0.0091420
  H       -2.3786350    -2.2235800    -0.0126570
  H       -3.1454970     1.1693440    -0.8801020
  H       -3.8626160    -0.2117770    -0.0066990
  H       -3.1511970     1.1523310     0.8973960
  H        1.3824760     2.9891980    -0.0128990
  H        3.6364610    -0.8630510    -0.2195510
  H        2.4794860    -2.1327440    -0.2212610
units angstrom
no_reorient  #important for SAPT in psi4, default
symmetry c1  #important for SAPT in psi4, default
}

set PROPERTIES_ORIGIN ["COM"]
properties('MP2/aug-cc-pvtz', properties = ['dipole'])
--------------------------------------------------------------------------

  Memory set to  29.802 GiB by Python driver.
    SCF Algorithm Type (re)set to DF.

*** tstart() called on node35.bme.utexas.edu
*** at Tue Nov 17 19:25:07 2020

   => Loading Basis Set <=

    Name: AUG-CC-PVTZ
    Role: ORBITAL
    Keyword: BASIS
    atoms 1-5   entry N          line   281 file /home/xy3866/psi4conda/share/psi4/basis/aug-cc-pvtz.gbs 
    atoms 6-11  entry C          line   235 file /home/xy3866/psi4conda/share/psi4/basis/aug-cc-pvtz.gbs 
    atoms 12-18 entry H          line    36 file /home/xy3866/psi4conda/share/psi4/basis/aug-cc-pvtz.gbs 


         ---------------------------------------------------------
                                   SCF
               by Justin Turney, Rob Parrish, Andy Simmonett
                          and Daniel G. A. Smith
                              RHF Reference
                        8 Threads,  30517 MiB Core
         ---------------------------------------------------------

  ==> Geometry <==

    Molecular point group: c1
    Full point group: C1

    Geometry (in Angstrom), charge = 0, multiplicity = 1:

       Center              X                  Y                   Z               Mass       
    ------------   -----------------  -----------------  -----------------  -----------------
         N           -1.820904687237    -0.156105271328    -0.003191746038    14.003074004430
         N           -0.302924687237    -1.843988271328    -0.011302746038    14.003074004430
         N           -0.298893687237     1.755458728672    -0.002026746038    14.003074004430
         N            2.021633312763     1.041851728672    -0.010954746038    14.003074004430
         N            2.695216312763    -1.191047271328     0.075539253962    14.003074004430
         C           -0.616870287237     0.408981028672     0.002040253962    12.000000000000
         C            0.335027312763    -0.620086271328     0.005130253962    12.000000000000
         C           -1.588531687237    -1.510074271328    -0.009387746038    12.000000000000
         C            1.705916712763    -0.307298671328    -0.001341946038    12.000000000000
         C           -3.097068687237     0.538521728672    -0.000214746038    12.000000000000
         C            1.026282312763     1.956295728672    -0.012222746038    12.000000000000
         H           -2.410235687237    -2.217912271328    -0.015737746038     1.007825032230
         H           -3.177097687237     1.175011728672    -0.883182746038     1.007825032230
         H           -3.894216687237    -0.206109271328    -0.009779746038     1.007825032230
         H           -3.182797687237     1.157998728672     0.894315253962     1.007825032230
         H            1.350875312763     2.994865728672    -0.015979746038     1.007825032230
         H            3.604860312763    -0.857383271328    -0.222631746038     1.007825032230
         H            2.447885312763    -2.127076271328    -0.224341746038     1.007825032230

  Running in c1 symmetry.

  Rotational constants: A =      0.07190  B =      0.03578  C =      0.02401 [cm^-1]
  Rotational constants: A =   2155.40092  B =   1072.68708  C =    719.85599 [MHz]
  Nuclear repulsion =  594.107134965084015

  Charge       = 0
  Multiplicity = 1
  Electrons    = 78
  Nalpha       = 39
  Nbeta        = 39

  ==> Algorithm <==

  SCF Algorithm Type is DF.
  DIIS enabled.
  MOM disabled.
  Fractional occupation disabled.
  Guess Type is SAD.
  Energy threshold   = 1.00e-10
  Density threshold  = 1.00e-10
  Integral threshold = 0.00e+00

  ==> Primary Basis <==

  Basis Set: AUG-CC-PVTZ
    Blend: AUG-CC-PVTZ
    Number of shells: 217
    Number of basis function: 667
    Number of Cartesian functions: 780
    Spherical Harmonics?: true
    Max angular momentum: 3

   => Loading Basis Set <=

    Name: (AUG-CC-PVTZ AUX)
    Role: JKFIT
    Keyword: DF_BASIS_SCF
    atoms 1-5   entry N          line   224 file /home/xy3866/psi4conda/share/psi4/basis/aug-cc-pvtz-jkfit.gbs 
    atoms 6-11  entry C          line   162 file /home/xy3866/psi4conda/share/psi4/basis/aug-cc-pvtz-jkfit.gbs 
    atoms 12-18 entry H          line    70 file /home/xy3866/psi4conda/share/psi4/basis/aug-cc-pvtz-jkfit.gbs 

  ==> Pre-Iterations <==

   -------------------------------------------------------
    Irrep   Nso     Nmo     Nalpha   Nbeta   Ndocc  Nsocc
   -------------------------------------------------------
     A        667     667       0       0       0       0
   -------------------------------------------------------
    Total     667     667      39      39      39       0
   -------------------------------------------------------

  ==> Integral Setup <==

  DFHelper Memory: AOs need 4.707 GiB; user supplied 22.352 GiB. Using in-core AOs.

  ==> MemDFJK: Density-Fitted J/K Matrices <==

    J tasked:                   Yes
    K tasked:                   Yes
    wK tasked:                   No
    OpenMP threads:               8
    Memory [MiB]:             22888
    Algorithm:                 Disk
    Schwarz Cutoff:           1E-12
    Mask sparsity (%):       5.8617
    Fitting Condition:        1E-10

   => Auxiliary Basis Set <=

  Basis Set: (AUG-CC-PVTZ AUX)
    Blend: AUG-CC-PVTZ-JKFIT
    Number of shells: 428
    Number of basis function: 1466
    Number of Cartesian functions: 1826
    Spherical Harmonics?: true
    Max angular momentum: 4

  Minimum eigenvalue in the overlap matrix is 9.9977242197E-07.
  Using Symmetric Orthogonalization.

  SCF Guess: Superposition of Atomic Densities via on-the-fly atomic UHF.

  ==> Iterations <==

                           Total Energy        Delta E     RMS |[F,P]|

   @DF-RHF iter SAD:  -503.50065525976578   -5.03501e+02   0.00000e+00 
   @DF-RHF iter   1:  -503.45743403723264    4.32212e-02   1.02259e-03 DIIS
   @DF-RHF iter   2:  -503.66879826807275   -2.11364e-01   4.91736e-04 DIIS
   @DF-RHF iter   3:  -503.71220313130391   -4.34049e-02   1.22377e-04 DIIS
   @DF-RHF iter   4:  -503.71617478032448   -3.97165e-03   5.53443e-05 DIIS
   @DF-RHF iter   5:  -503.71689301333055   -7.18233e-04   1.22862e-05 DIIS
   @DF-RHF iter   6:  -503.71695873570428   -6.57224e-05   5.81862e-06 DIIS
   @DF-RHF iter   7:  -503.71697649401335   -1.77583e-05   2.25345e-06 DIIS
   @DF-RHF iter   8:  -503.71698034620579   -3.85219e-06   9.63155e-07 DIIS
   @DF-RHF iter   9:  -503.71698110972659   -7.63521e-07   4.52991e-07 DIIS
   @DF-RHF iter  10:  -503.71698129564027   -1.85914e-07   1.80212e-07 DIIS
   @DF-RHF iter  11:  -503.71698132731126   -3.16710e-08   7.73513e-08 DIIS
   @DF-RHF iter  12:  -503.71698133307302   -5.76176e-09   2.86634e-08 DIIS
   @DF-RHF iter  13:  -503.71698133376833   -6.95309e-10   1.17933e-08 DIIS
   @DF-RHF iter  14:  -503.71698133385007   -8.17408e-11   4.20798e-09 DIIS
   @DF-RHF iter  15:  -503.71698133386030   -1.02318e-11   1.43175e-09 DIIS
   @DF-RHF iter  16:  -503.71698133386258   -2.27374e-12   8.12922e-10 DIIS
   @DF-RHF iter  17:  -503.71698133386133    1.25056e-12   2.63232e-10 DIIS
   @DF-RHF iter  18:  -503.71698133386127    5.68434e-14   1.05859e-10 DIIS
   @DF-RHF iter  19:  -503.71698133386280   -1.53477e-12   4.92779e-11 DIIS
  Energy and wave function converged.


  ==> Post-Iterations <==

    Orbital Energies [Eh]
    ---------------------

    Doubly Occupied:                                                      

       1A    -15.636347     2A    -15.589648     3A    -15.568307  
       4A    -15.553664     5A    -15.546923     6A    -11.337758  
       7A    -11.319563     8A    -11.311735     9A    -11.305709  
      10A    -11.291268    11A    -11.249425    12A     -1.377313  
      13A     -1.292662    14A     -1.241278    15A     -1.204107  
      16A     -1.137078    17A     -1.030307    18A     -0.991944  
      19A     -0.892708    20A     -0.861702    21A     -0.807113  
      22A     -0.755302    23A     -0.730759    24A     -0.684382  
      25A     -0.673517    26A     -0.670813    27A     -0.625821  
      28A     -0.603627    29A     -0.595630    30A     -0.590879  
      31A     -0.579005    32A     -0.540889    33A     -0.493455  
      34A     -0.486457    35A     -0.441470    36A     -0.417324  
      37A     -0.402389    38A     -0.358020    39A     -0.306972  

    Virtual:                                                              

      40A      0.022336    41A      0.031281    42A      0.035166  
      43A      0.044580    44A      0.045832    45A      0.051033  
      46A      0.062630    47A      0.078246    48A      0.078871  
      49A      0.082032    50A      0.090624    51A      0.102637  
      52A      0.106589    53A      0.109646    54A      0.113437  
      55A      0.117018    56A      0.120719    57A      0.121639  
      58A      0.128854    59A      0.132187    60A      0.133841  
      61A      0.136508    62A      0.140950    63A      0.143159  
      64A      0.149601    65A      0.155122    66A      0.159090  
      67A      0.167518    68A      0.171050    69A      0.184637  
      70A      0.188143    71A      0.190619    72A      0.202538  
      73A      0.204408    74A      0.206604    75A      0.212952  
      76A      0.217776    77A      0.226074    78A      0.229048  
      79A      0.235854    80A      0.241040    81A      0.242824  
      82A      0.247010    83A      0.248980    84A      0.250111  
      85A      0.253519    86A      0.268409    87A      0.275359  
      88A      0.277293    89A      0.282628    90A      0.284199  
      91A      0.299037    92A      0.305194    93A      0.307135  
      94A      0.315084    95A      0.316667    96A      0.322647  
      97A      0.333623    98A      0.334619    99A      0.337191  
     100A      0.341322   101A      0.355591   102A      0.358474  
     103A      0.362399   104A      0.365276   105A      0.375033  
     106A      0.377602   107A      0.381909   108A      0.387159  
     109A      0.395279   110A      0.398139   111A      0.401328  
     112A      0.401552   113A      0.412922   114A      0.417449  
     115A      0.426592   116A      0.432540   117A      0.434580  
     118A      0.437438   119A      0.444184   120A      0.447518  
     121A      0.454597   122A      0.456425   123A      0.465567  
     124A      0.472478   125A      0.477341   126A      0.478212  
     127A      0.483964   128A      0.486053   129A      0.488813  
     130A      0.494696   131A      0.497429   132A      0.503561  
     133A      0.508430   134A      0.512438   135A      0.513946  
     136A      0.519876   137A      0.523354   138A      0.525673  
     139A      0.531935   140A      0.535137   141A      0.539955  
     142A      0.544463   143A      0.557900   144A      0.560755  
     145A      0.564306   146A      0.574745   147A      0.581804  
     148A      0.588543   149A      0.591495   150A      0.600601  
     151A      0.616763   152A      0.620690   153A      0.622302  
     154A      0.625449   155A      0.641198   156A      0.647163  
     157A      0.652742   158A      0.659289   159A      0.668778  
     160A      0.674033   161A      0.681757   162A      0.683526  
     163A      0.689981   164A      0.697848   165A      0.705498  
     166A      0.707869   167A      0.717061   168A      0.734495  
     169A      0.739452   170A      0.746089   171A      0.754637  
     172A      0.757512   173A      0.763403   174A      0.766031  
     175A      0.778797   176A      0.788222   177A      0.791342  
     178A      0.803296   179A      0.807639   180A      0.817233  
     181A      0.819100   182A      0.828249   183A      0.832857  
     184A      0.834938   185A      0.843095   186A      0.851514  
     187A      0.853116   188A      0.858315   189A      0.865585  
     190A      0.874307   191A      0.885213   192A      0.887502  
     193A      0.892478   194A      0.894700   195A      0.906771  
     196A      0.911626   197A      0.923839   198A      0.928223  
     199A      0.931842   200A      0.934114   201A      0.934926  
     202A      0.942356   203A      0.947771   204A      0.953688  
     205A      0.961170   206A      0.968881   207A      0.972885  
     208A      0.976776   209A      0.986463   210A      0.993377  
     211A      1.003840   212A      1.008619   213A      1.009876  
     214A      1.013471   215A      1.025687   216A      1.026943  
     217A      1.038036   218A      1.042712   219A      1.047290  
     220A      1.057386   221A      1.060474   222A      1.069350  
     223A      1.071135   224A      1.086910   225A      1.094600  
     226A      1.098800   227A      1.100080   228A      1.104136  
     229A      1.113441   230A      1.115457   231A      1.123947  
     232A      1.126701   233A      1.135358   234A      1.143010  
     235A      1.144249   236A      1.148971   237A      1.155165  
     238A      1.166237   239A      1.172306   240A      1.183139  
     241A      1.186183   242A      1.193489   243A      1.208849  
     244A      1.212850   245A      1.218167   246A      1.226495  
     247A      1.235383   248A      1.244038   249A      1.252991  
     250A      1.257341   251A      1.263193   252A      1.271294  
     253A      1.276282   254A      1.286098   255A      1.289427  
     256A      1.295032   257A      1.298327   258A      1.300773  
     259A      1.313290   260A      1.315695   261A      1.333063  
     262A      1.340351   263A      1.351385   264A      1.361687  
     265A      1.366503   266A      1.375896   267A      1.386611  
     268A      1.390987   269A      1.414987   270A      1.418092  
     271A      1.421468   272A      1.429605   273A      1.445310  
     274A      1.448518   275A      1.460842   276A      1.469046  
     277A      1.477888   278A      1.488185   279A      1.492169  
     280A      1.498709   281A      1.503852   282A      1.510137  
     283A      1.521840   284A      1.538146   285A      1.549048  
     286A      1.553289   287A      1.555410   288A      1.567317  
     289A      1.573873   290A      1.580724   291A      1.591473  
     292A      1.595677   293A      1.610100   294A      1.619144  
     295A      1.630051   296A      1.644795   297A      1.649464  
     298A      1.651174   299A      1.662598   300A      1.668399  
     301A      1.672091   302A      1.681302   303A      1.689238  
     304A      1.701006   305A      1.704559   306A      1.724532  
     307A      1.737650   308A      1.741590   309A      1.743379  
     310A      1.751745   311A      1.758127   312A      1.774158  
     313A      1.781349   314A      1.784246   315A      1.788255  
     316A      1.806177   317A      1.814214   318A      1.818978  
     319A      1.825519   320A      1.844452   321A      1.851021  
     322A      1.860748   323A      1.881572   324A      1.884136  
     325A      1.899151   326A      1.913965   327A      1.917851  
     328A      1.933153   329A      1.955246   330A      1.965673  
     331A      1.967329   332A      1.983924   333A      1.984936  
     334A      1.998854   335A      2.009088   336A      2.023272  
     337A      2.025533   338A      2.041673   339A      2.046768  
     340A      2.058636   341A      2.062262   342A      2.071539  
     343A      2.085801   344A      2.095878   345A      2.105961  
     346A      2.124828   347A      2.133418   348A      2.140163  
     349A      2.148434   350A      2.164100   351A      2.169421  
     352A      2.183519   353A      2.188209   354A      2.197736  
     355A      2.201560   356A      2.219594   357A      2.221483  
     358A      2.229781   359A      2.244445   360A      2.250655  
     361A      2.276734   362A      2.281523   363A      2.288238  
     364A      2.301908   365A      2.304578   366A      2.319585  
     367A      2.324841   368A      2.339277   369A      2.342832  
     370A      2.356425   371A      2.364973   372A      2.376137  
     373A      2.382184   374A      2.386299   375A      2.398145  
     376A      2.408838   377A      2.434151   378A      2.436233  
     379A      2.441956   380A      2.472923   381A      2.483645  
     382A      2.490713   383A      2.498529   384A      2.519316  
     385A      2.522420   386A      2.545561   387A      2.565174  
     388A      2.574619   389A      2.585410   390A      2.594743  
     391A      2.610761   392A      2.615988   393A      2.632278  
     394A      2.639008   395A      2.652926   396A      2.666686  
     397A      2.693035   398A      2.708991   399A      2.724878  
     400A      2.751643   401A      2.760727   402A      2.769211  
     403A      2.800195   404A      2.821726   405A      2.827396  
     406A      2.849261   407A      2.867499   408A      2.872748  
     409A      2.877427   410A      2.902075   411A      2.921092  
     412A      2.967739   413A      2.993564   414A      3.026284  
     415A      3.050566   416A      3.093491   417A      3.122647  
     418A      3.126017   419A      3.136461   420A      3.175891  
     421A      3.189199   422A      3.209508   423A      3.215064  
     424A      3.236724   425A      3.267411   426A      3.306693  
     427A      3.342294   428A      3.376455   429A      3.385186  
     430A      3.392156   431A      3.406052   432A      3.438134  
     433A      3.448870   434A      3.463387   435A      3.476195  
     436A      3.486815   437A      3.510277   438A      3.520155  
     439A      3.541239   440A      3.544453   441A      3.557329  
     442A      3.565103   443A      3.580238   444A      3.597938  
     445A      3.605278   446A      3.610581   447A      3.643412  
     448A      3.647434   449A      3.650376   450A      3.683884  
     451A      3.696574   452A      3.705984   453A      3.712718  
     454A      3.718710   455A      3.731596   456A      3.741136  
     457A      3.750509   458A      3.764329   459A      3.775708  
     460A      3.782821   461A      3.785938   462A      3.809957  
     463A      3.812531   464A      3.825973   465A      3.844658  
     466A      3.866388   467A      3.875533   468A      3.897031  
     469A      3.902021   470A      3.911760   471A      3.926250  
     472A      3.928870   473A      3.934959   474A      3.954988  
     475A      3.961861   476A      3.977717   477A      3.989814  
     478A      3.996782   479A      4.015255   480A      4.024931  
     481A      4.026392   482A      4.038016   483A      4.055878  
     484A      4.063804   485A      4.071026   486A      4.084294  
     487A      4.093698   488A      4.110851   489A      4.116665  
     490A      4.119916   491A      4.126535   492A      4.142850  
     493A      4.180356   494A      4.197288   495A      4.208807  
     496A      4.212675   497A      4.221738   498A      4.226244  
     499A      4.249417   500A      4.255514   501A      4.265586  
     502A      4.275622   503A      4.291915   504A      4.305422  
     505A      4.312338   506A      4.326001   507A      4.346822  
     508A      4.359452   509A      4.367602   510A      4.382690  
     511A      4.388225   512A      4.392469   513A      4.411377  
     514A      4.424638   515A      4.425984   516A      4.449379  
     517A      4.465348   518A      4.482895   519A      4.490525  
     520A      4.498442   521A      4.509947   522A      4.522140  
     523A      4.561864   524A      4.575034   525A      4.583838  
     526A      4.589506   527A      4.613744   528A      4.624678  
     529A      4.641799   530A      4.661277   531A      4.663611  
     532A      4.699490   533A      4.701973   534A      4.739596  
     535A      4.762205   536A      4.797298   537A      4.799811  
     538A      4.808625   539A      4.820151   540A      4.840596  
     541A      4.843275   542A      4.856600   543A      4.868392  
     544A      4.888847   545A      4.889105   546A      4.925468  
     547A      4.950642   548A      4.953556   549A      4.972569  
     550A      4.988070   551A      4.996279   552A      5.010996  
     553A      5.040505   554A      5.058709   555A      5.095071  
     556A      5.107151   557A      5.135088   558A      5.139689  
     559A      5.157080   560A      5.161854   561A      5.185210  
     562A      5.193717   563A      5.237850   564A      5.241668  
     565A      5.264152   566A      5.270006   567A      5.279513  
     568A      5.293613   569A      5.302601   570A      5.335449  
     571A      5.343150   572A      5.351469   573A      5.384633  
     574A      5.397111   575A      5.410032   576A      5.429408  
     577A      5.465443   578A      5.469254   579A      5.480298  
     580A      5.498474   581A      5.554623   582A      5.558252  
     583A      5.589619   584A      5.596374   585A      5.615413  
     586A      5.635401   587A      5.646883   588A      5.658590  
     589A      5.671026   590A      5.684148   591A      5.691118  
     592A      5.708209   593A      5.730674   594A      5.733378  
     595A      5.745723   596A      5.756952   597A      5.772329  
     598A      5.783929   599A      5.818858   600A      5.830962  
     601A      5.849558   602A      5.866737   603A      5.886051  
     604A      5.896477   605A      5.904256   606A      5.932784  
     607A      5.937629   608A      5.960942   609A      5.980970  
     610A      5.993228   611A      5.999005   612A      6.029892  
     613A      6.037751   614A      6.085142   615A      6.102193  
     616A      6.122837   617A      6.144168   618A      6.163291  
     619A      6.178874   620A      6.207162   621A      6.209132  
     622A      6.222140   623A      6.244288   624A      6.283721  
     625A      6.295247   626A      6.329305   627A      6.344023  
     628A      6.418903   629A      6.423318   630A      6.492835  
     631A      6.514390   632A      6.557527   633A      6.625970  
     634A      6.676877   635A      6.681596   636A      6.701824  
     637A      6.719964   638A      6.738463   639A      6.773623  
     640A      6.803463   641A      6.842047   642A      6.891850  
     643A      6.953592   644A      6.997597   645A      7.004697  
     646A      7.034502   647A      7.102373   648A      7.117691  
     649A      7.141072   650A      7.248640   651A      7.315103  
     652A      7.361194   653A      7.431526   654A      7.468241  
     655A      7.574732   656A      7.761212   657A     15.641216  
     658A     16.079898   659A     16.221364   660A     17.547540  
     661A     18.485666   662A     18.921877   663A     19.116900  
     664A     19.365534   665A     19.816340   666A     20.537072  
     667A     21.709612  

    Final Occupation by Irrep:
              A 
    DOCC [    39 ]

  @DF-RHF Final Energy:  -503.71698133386280

   => Energetics <=

    Nuclear Repulsion Energy =            594.1071349650840148
    One-Electron Energy =               -1862.6416869006641264
    Two-Electron Energy =                 764.8175706017173070
    Total Energy =                       -503.7169813338628046

Computation Completed

*** tstop() called on node35.bme.utexas.edu at Tue Nov 17 19:27:20 2020
Module time:
	user time   =     544.16 seconds =       9.07 minutes
	system time =      77.05 seconds =       1.28 minutes
	total time  =        133 seconds =       2.22 minutes
Total time:
	user time   =     544.16 seconds =       9.07 minutes
	system time =      77.05 seconds =       1.28 minutes
	total time  =        133 seconds =       2.22 minutes
   => Loading Basis Set <=

    Name: (AUG-CC-PVTZ AUX)
    Role: RIFIT
    Keyword: DF_BASIS_MP2
    atoms 1-5   entry N          line   206 file /home/xy3866/psi4conda/share/psi4/basis/aug-cc-pvtz-ri.gbs 
    atoms 6-11  entry C          line   148 file /home/xy3866/psi4conda/share/psi4/basis/aug-cc-pvtz-ri.gbs 
    atoms 12-18 entry H          line    30 file /home/xy3866/psi4conda/share/psi4/basis/aug-cc-pvtz-ri.gbs 


*** tstart() called on node35.bme.utexas.edu
*** at Tue Nov 17 19:27:20 2020


  //>>>>>>>>>>>>>>>>>>>>>>>>>>>>>>>>>>>//
  //               DFMP2               //
  //<<<<<<<<<<<<<<<<<<<<<<<<<<<<<<<<<<<//

	 --------------------------------------------------------
	                          DF-MP2                         
	      2nd-Order Density-Fitted Moller-Plesset Theory     
	              RMP2 Wavefunction,   8 Threads             
	                                                         
	        Rob Parrish, Justin Turney, Andy Simmonett,      
	           Ed Hohenstein, and C. David Sherrill          
	 --------------------------------------------------------

   => Auxiliary Basis Set <=

  Basis Set: (AUG-CC-PVTZ AUX)
    Blend: AUG-CC-PVTZ-RI
    Number of shells: 406
    Number of basis function: 1488
    Number of Cartesian functions: 1881
    Spherical Harmonics?: true
    Max angular momentum: 4

	 --------------------------------------------------------
	                 NBF =   667, NAUX =  1488
	 --------------------------------------------------------
	   CLASS    FOCC     OCC    AOCC    AVIR     VIR    FVIR
	   PAIRS       0      39      39     628     628       0
	 --------------------------------------------------------

  DFHelper Memory: AOs need 4.707 GiB; user supplied 22.352 GiB. Using in-core AOs.


         ------------------------------------------------------------
                                     CPHF                           
                                  Rob Parrish                       
         ------------------------------------------------------------

  ==> Geometry <==

    Molecular point group: c1
    Full point group: C1

    Geometry (in Angstrom), charge = 0, multiplicity = 1:

       Center              X                  Y                   Z               Mass       
    ------------   -----------------  -----------------  -----------------  -----------------
         N           -1.820904687237    -0.156105271328    -0.003191746038    14.003074004430
         N           -0.302924687237    -1.843988271328    -0.011302746038    14.003074004430
         N           -0.298893687237     1.755458728672    -0.002026746038    14.003074004430
         N            2.021633312763     1.041851728672    -0.010954746038    14.003074004430
         N            2.695216312763    -1.191047271328     0.075539253962    14.003074004430
         C           -0.616870287237     0.408981028672     0.002040253962    12.000000000000
         C            0.335027312763    -0.620086271328     0.005130253962    12.000000000000
         C           -1.588531687237    -1.510074271328    -0.009387746038    12.000000000000
         C            1.705916712763    -0.307298671328    -0.001341946038    12.000000000000
         C           -3.097068687237     0.538521728672    -0.000214746038    12.000000000000
         C            1.026282312763     1.956295728672    -0.012222746038    12.000000000000
         H           -2.410235687237    -2.217912271328    -0.015737746038     1.007825032230
         H           -3.177097687237     1.175011728672    -0.883182746038     1.007825032230
         H           -3.894216687237    -0.206109271328    -0.009779746038     1.007825032230
         H           -3.182797687237     1.157998728672     0.894315253962     1.007825032230
         H            1.350875312763     2.994865728672    -0.015979746038     1.007825032230
         H            3.604860312763    -0.857383271328    -0.222631746038     1.007825032230
         H            2.447885312763    -2.127076271328    -0.224341746038     1.007825032230

  Nuclear repulsion =  594.107134965084015
  Reference energy  = -503.716981333862805

  ==> Basis Set <==

  Basis Set: AUG-CC-PVTZ
    Blend: AUG-CC-PVTZ
    Number of shells: 217
    Number of basis function: 667
    Number of Cartesian functions: 780
    Spherical Harmonics?: true
    Max angular momentum: 3

  ==> CGRSolver (by Rob Parrish) <==

   Number of roots    =         1
   Preconditioning    =    JACOBI
   Convergence cutoff =     1E-06
   Maximum iterations =       100

  ==> CPHFRHamiltonian (by Rob Parrish) <== 

  ==> MemDFJK: Density-Fitted J/K Matrices <==

    J tasked:                   Yes
    K tasked:                   Yes
    wK tasked:                   No
    OpenMP threads:               8
    Memory [MiB]:             22888
    Algorithm:                 Disk
    Schwarz Cutoff:           1E-12
    Mask sparsity (%):       5.8617
    Fitting Condition:        1E-10

   => Auxiliary Basis Set <=

  Basis Set: (AUG-CC-PVTZ AUX)
    Blend: AUG-CC-PVTZ-JKFIT
    Number of shells: 428
    Number of basis function: 1466
    Number of Cartesian functions: 1826
    Spherical Harmonics?: true
    Max angular momentum: 4

  ==> CPHF Iterations <==

  => Iterations <=

             Iter  Converged  Remaining    Residual
  CGR           1          0          1   1.203E-01
  CGR           2          0          1   5.059E-02
  CGR           3          0          1   2.708E-02
  CGR           4          0          1   8.928E-03
  CGR           5          0          1   4.282E-03
  CGR           6          0          1   1.835E-03
  CGR           7          0          1   6.252E-04
  CGR           8          0          1   2.659E-04
  CGR           9          0          1   8.914E-05
  CGR          10          0          1   3.104E-05
  CGR          11          0          1   1.138E-05
  CGR          12          0          1   4.508E-06
  CGR          13          0          1   1.826E-06
  CGR          14          1          0   6.811E-07

    CGRSolver converged.

	-----------------------------------------------------------
	 ==================> DF-MP2 Energies <==================== 
	-----------------------------------------------------------
	 Reference Energy          =    -503.7169813338628046 [Eh]
	 Singles Energy            =      -0.0000000000000000 [Eh]
	 Same-Spin Energy          =      -0.5494507595044869 [Eh]
	 Opposite-Spin Energy      =      -1.6337851249777877 [Eh]
	 Correlation Energy        =      -2.1832358844822748 [Eh]
	 Total Energy              =    -505.9002172183450625 [Eh]
	-----------------------------------------------------------
	 ================> DF-SCS-MP2 Energies <================== 
	-----------------------------------------------------------
	 SCS Same-Spin Scale       =       0.3333333333333333 [-]
	 SCS Opposite-Spin Scale   =       1.2000000000000000 [-]
	 SCS Same-Spin Energy      =      -0.1831502531681623 [Eh]
	 SCS Opposite-Spin Energy  =      -1.9605421499733451 [Eh]
	 SCS Correlation Energy    =      -2.1436924031415074 [Eh]
	 SCS Total Energy          =    -505.8606737370043334 [Eh]
	-----------------------------------------------------------



Properties will be evaluated at  -0.000000,  -0.000000,  -0.000000 [a0]

Properties computed using the MP2 density matrix

  Nuclear Dipole Moment: [e a0]
     X:    -4.9384      Y:    -0.0744      Z:    -0.4476

  Electronic Dipole Moment: [e a0]
     X:     3.9085      Y:    -0.5386      Z:     0.1426

  Dipole Moment: [e a0]
     X:    -1.0299      Y:    -0.6130      Z:    -0.3050     Total:     1.2367

  Dipole Moment: [D]
     X:    -2.6177      Y:    -1.5582      Z:    -0.7752     Total:     3.1435


*** tstop() called on node35.bme.utexas.edu at Tue Nov 17 19:32:09 2020
Module time:
	user time   =    1647.49 seconds =      27.46 minutes
	system time =     101.50 seconds =       1.69 minutes
	total time  =        289 seconds =       4.82 minutes
Total time:
	user time   =    2191.88 seconds =      36.53 minutes
	system time =     178.55 seconds =       2.98 minutes
	total time  =        422 seconds =       7.03 minutes

    Psi4 stopped on: Tuesday, 17 November 2020 07:32PM
    Psi4 wall time for execution: 0:07:02.71

*** Psi4 exiting successfully. Buy a developer a beer!
