
    -----------------------------------------------------------------------
          Psi4: An Open-Source Ab Initio Electronic Structure Package
                               Psi4 1.4a3.dev225 

                         Git: Rev {master} 7105e37 


    D. G. A. Smith, L. A. Burns, A. C. Simmonett, R. M. Parrish,
    M. C. Schieber, R. Galvelis, P. Kraus, H. Kruse, R. Di Remigio,
    A. Alenaizan, A. M. James, S. Lehtola, J. P. Misiewicz, M. Scheurer,
    R. A. Shaw, J. B. Schriber, Y. Xie, Z. L. Glick, D. A. Sirianni,
    J. S. O'Brien, J. M. Waldrop, A. Kumar, E. G. Hohenstein,
    B. P. Pritchard, B. R. Brooks, H. F. Schaefer III, A. Yu. Sokolov,
    K. Patkowski, A. E. DePrince III, U. Bozkaya, R. A. King,
    F. A. Evangelista, J. M. Turney, T. D. Crawford, C. D. Sherrill,
    J. Chem. Phys. 152(18) 184108 (2020). https://doi.org/10.1063/5.0006002

                            Additional Code Authors
    E. T. Seidl, C. L. Janssen, E. F. Valeev, M. L. Leininger,
    J. F. Gonthier, R. M. Richard, H. R. McAlexander, M. Saitow, X. Wang,
    P. Verma, and M. H. Lechner

             Previous Authors, Complete List of Code Contributors,
                       and Citations for Specific Modules
    https://github.com/psi4/psi4/blob/master/codemeta.json
    https://github.com/psi4/psi4/graphs/contributors
    http://psicode.org/psi4manual/master/introduction.html#citing-psifour

    -----------------------------------------------------------------------


    Psi4 started on: Friday, 19 March 2021 08:34PM

    Process ID: 235944
    Host:       c445-043.stampede2.tacc.utexas.edu
    PSIDATADIR: /home1/07844/xy3866/miniconda3/envs/p4env/share/psi4
    Memory:     500.0 MiB
    Threads:    32
    
  ==> Input File <==

--------------------------------------------------------------------------
#psi4
#
memory 32 gb

molecule  {
0 1
  N       -1.7889380    -0.1640290    -0.0179520
  N       -0.2703210    -1.8482040    -0.0023970
  N       -0.2671710     1.7490810    -0.0033560
  N        2.0541740     1.0368940    -0.0085470
  N        2.7206340    -1.1973270     0.0732090
  C       -0.5486140     0.4351420     0.0045870
  C        0.3650590    -0.6247560     0.0169900
  C       -1.5603084    -1.4964151    -0.0162985
  C        1.7266360    -0.2641570     0.0048060
  C       -3.0641060     0.5324820     0.0177850
  C        1.0564750     1.9508360    -0.0110870
  H       -2.3762040    -2.2259510    -0.0342240
  H       -2.9284720     1.5041700    -0.4579320
  H       -3.8067760    -0.0485880    -0.5312030
  H       -3.3972360     0.6796990     1.0480130
  H        1.3812150     2.9891510    -0.0228070
  H        3.6427950    -0.8729100    -0.1905990
  H        2.4748820    -2.1409930    -0.1987870
units angstrom
no_reorient  #important for SAPT in psi4, default
symmetry c1  #important for SAPT in psi4, default
}

set PROPERTIES_ORIGIN ["COM"]
properties('MP2/aug-cc-pvtz', properties = ['dipole'])
--------------------------------------------------------------------------

  Memory set to  29.802 GiB by Python driver.
    SCF Algorithm Type (re)set to DF.

*** tstart() called on c445-043.stampede2.tacc.utexas.edu
*** at Fri Mar 19 20:35:18 2021

   => Loading Basis Set <=

    Name: AUG-CC-PVTZ
    Role: ORBITAL
    Keyword: BASIS
    atoms 1-5   entry N          line   285 file /home1/07844/xy3866/miniconda3/envs/p4env/share/psi4/basis/aug-cc-pvtz.gbs 
    atoms 6-11  entry C          line   239 file /home1/07844/xy3866/miniconda3/envs/p4env/share/psi4/basis/aug-cc-pvtz.gbs 
    atoms 12-18 entry H          line    40 file /home1/07844/xy3866/miniconda3/envs/p4env/share/psi4/basis/aug-cc-pvtz.gbs 


         ---------------------------------------------------------
                                   SCF
               by Justin Turney, Rob Parrish, Andy Simmonett
                          and Daniel G. A. Smith
                              RHF Reference
                       32 Threads,  30517 MiB Core
         ---------------------------------------------------------

  ==> Geometry <==

    Molecular point group: c1
    Full point group: C1

    Geometry (in Angstrom), charge = 0, multiplicity = 1:

       Center              X                  Y                   Z               Mass       
    ------------   -----------------  -----------------  -----------------  -----------------
         N           -1.822060123155    -0.166375314994    -0.020530265394    14.003074004430
         N           -0.303443123155    -1.850550314994    -0.004975265394    14.003074004430
         N           -0.300293123155     1.746734685006    -0.005934265394    14.003074004430
         N            2.021051876845     1.034547685006    -0.011125265394    14.003074004430
         N            2.687511876845    -1.199673314994     0.070630734606    14.003074004430
         C           -0.581736123155     0.432795685006     0.002008734606    12.000000000000
         C            0.331936876845    -0.627102314994     0.014411734606    12.000000000000
         C           -1.593430523155    -1.498761414994    -0.018876765394    12.000000000000
         C            1.693513876845    -0.266503314994     0.002227734606    12.000000000000
         C           -3.097228123155     0.530135685006     0.015206734606    12.000000000000
         C            1.023352876845     1.948489685006    -0.013665265394    12.000000000000
         H           -2.409326123155    -2.228297314994    -0.036802265394     1.007825032230
         H           -2.961594123155     1.501823685006    -0.460510265394     1.007825032230
         H           -3.839898123155    -0.050934314994    -0.533781265394     1.007825032230
         H           -3.430358123155     0.677352685006     1.045434734606     1.007825032230
         H            1.348092876845     2.986804685006    -0.025385265394     1.007825032230
         H            3.609672876845    -0.875256314994    -0.193177265394     1.007825032230
         H            2.441759876845    -2.143339314994    -0.201365265394     1.007825032230

  Running in c1 symmetry.

  Rotational constants: A =      0.07213  B =      0.03590  C =      0.02409 [cm^-1]
  Rotational constants: A =   2162.49220  B =   1076.20038  C =    722.21472 [MHz]
  Nuclear repulsion =  594.926138741407385

  Charge       = 0
  Multiplicity = 1
  Electrons    = 78
  Nalpha       = 39
  Nbeta        = 39

  ==> Algorithm <==

  SCF Algorithm Type is DF.
  DIIS enabled.
  MOM disabled.
  Fractional occupation disabled.
  Guess Type is SAD.
  Energy threshold   = 1.00e-10
  Density threshold  = 1.00e-10
  Integral threshold = 1.00e-12

  ==> Primary Basis <==

  Basis Set: AUG-CC-PVTZ
    Blend: AUG-CC-PVTZ
    Number of shells: 217
    Number of basis functions: 667
    Number of Cartesian functions: 780
    Spherical Harmonics?: true
    Max angular momentum: 3

   => Loading Basis Set <=

    Name: (AUG-CC-PVTZ AUX)
    Role: JKFIT
    Keyword: DF_BASIS_SCF
    atoms 1-5   entry N          line   224 file /home1/07844/xy3866/miniconda3/envs/p4env/share/psi4/basis/aug-cc-pvtz-jkfit.gbs 
    atoms 6-11  entry C          line   162 file /home1/07844/xy3866/miniconda3/envs/p4env/share/psi4/basis/aug-cc-pvtz-jkfit.gbs 
    atoms 12-18 entry H          line    70 file /home1/07844/xy3866/miniconda3/envs/p4env/share/psi4/basis/aug-cc-pvtz-jkfit.gbs 

  ==> Integral Setup <==

  DFHelper Memory: AOs need 4.605 GiB; user supplied 22.352 GiB. Using in-core AOs.

  ==> MemDFJK: Density-Fitted J/K Matrices <==

    J tasked:                   Yes
    K tasked:                   Yes
    wK tasked:                   No
    OpenMP threads:              32
    Memory [MiB]:             22888
    Algorithm:                 Core
    Schwarz Cutoff:           1E-12
    Mask sparsity (%):       9.5885
    Fitting Condition:        1E-10

   => Auxiliary Basis Set <=

  Basis Set: (AUG-CC-PVTZ AUX)
    Blend: AUG-CC-PVTZ-JKFIT
    Number of shells: 428
    Number of basis functions: 1466
    Number of Cartesian functions: 1826
    Spherical Harmonics?: true
    Max angular momentum: 4

  Minimum eigenvalue in the overlap matrix is 1.1038235420E-06.
  Reciprocal condition number of the overlap matrix is 6.0599209096E-08.
    Using symmetric orthogonalization.

  ==> Pre-Iterations <==

  SCF Guess: Superposition of Atomic Densities via on-the-fly atomic UHF (no occupation information).

   -------------------------
    Irrep   Nso     Nmo    
   -------------------------
     A        667     667 
   -------------------------
    Total     667     667
   -------------------------

  ==> Iterations <==

                           Total Energy        Delta E     RMS |[F,P]|

   @DF-RHF iter SAD:  -503.53228488910281   -5.03532e+02   0.00000e+00 
   @DF-RHF iter   1:  -503.46753405162940    6.47508e-02   1.01987e-03 DIIS
   @DF-RHF iter   2:  -503.67692584548206   -2.09392e-01   4.86157e-04 DIIS
   @DF-RHF iter   3:  -503.71925206518301   -4.23262e-02   1.22744e-04 DIIS
   @DF-RHF iter   4:  -503.72316923052426   -3.91717e-03   5.61266e-05 DIIS
   @DF-RHF iter   5:  -503.72390757686475   -7.38346e-04   1.20268e-05 DIIS
   @DF-RHF iter   6:  -503.72396854173530   -6.09649e-05   5.40822e-06 DIIS
   @DF-RHF iter   7:  -503.72398362235867   -1.50806e-05   2.01875e-06 DIIS
   @DF-RHF iter   8:  -503.72398652430081   -2.90194e-06   8.36287e-07 DIIS
   @DF-RHF iter   9:  -503.72398705785793   -5.33557e-07   4.10149e-07 DIIS
   @DF-RHF iter  10:  -503.72398718808358   -1.30226e-07   1.54887e-07 DIIS
   @DF-RHF iter  11:  -503.72398721206315   -2.39796e-08   6.89961e-08 DIIS
   @DF-RHF iter  12:  -503.72398721726228   -5.19913e-09   2.60309e-08 DIIS
   @DF-RHF iter  13:  -503.72398721796640   -7.04119e-10   1.02225e-08 DIIS
   @DF-RHF iter  14:  -503.72398721803245   -6.60521e-11   3.95144e-09 DIIS
   @DF-RHF iter  15:  -503.72398721804058   -8.12861e-12   1.29648e-09 DIIS
   @DF-RHF iter  16:  -503.72398721804200   -1.42109e-12   7.05379e-10 DIIS
   @DF-RHF iter  17:  -503.72398721804234   -3.41061e-13   2.40001e-10 DIIS
   @DF-RHF iter  18:  -503.72398721804285   -5.11591e-13   9.58341e-11 DIIS
  Energy and wave function converged.


  ==> Post-Iterations <==

    Orbital Energies [Eh]
    ---------------------

    Doubly Occupied:                                                      

       1A    -15.634178     2A    -15.581178     3A    -15.565814  
       4A    -15.560228     5A    -15.551734     6A    -11.334384  
       7A    -11.320730     8A    -11.312020     9A    -11.310810  
      10A    -11.288589    11A    -11.250883    12A     -1.371586  
      13A     -1.296769    14A     -1.242276    15A     -1.196421  
      16A     -1.152055    17A     -1.029832    18A     -0.988394  
      19A     -0.891159    20A     -0.872432    21A     -0.802405  
      22A     -0.754072    23A     -0.724978    24A     -0.683170  
      25A     -0.673202    26A     -0.668839    27A     -0.622559  
      28A     -0.606659    29A     -0.594975    30A     -0.590920  
      31A     -0.571607    32A     -0.537862    33A     -0.495204  
      34A     -0.491974    35A     -0.450098    36A     -0.413903  
      37A     -0.408137    38A     -0.368979    39A     -0.305092  

    Virtual:                                                              

      40A      0.022754    41A      0.032605    42A      0.034769  
      43A      0.040889    44A      0.045781    45A      0.053749  
      46A      0.065442    47A      0.075192    48A      0.079522  
      49A      0.084301    50A      0.090898    51A      0.102021  
      52A      0.105769    53A      0.110288    54A      0.111796  
      55A      0.117342    56A      0.119530    57A      0.120833  
      58A      0.126026    59A      0.130190    60A      0.134411  
      61A      0.139197    62A      0.140503    63A      0.145305  
      64A      0.152928    65A      0.154459    66A      0.157869  
      67A      0.167194    68A      0.171339    69A      0.181067  
      70A      0.187800    71A      0.188721    72A      0.201554  
      73A      0.204775    74A      0.210344    75A      0.212378  
      76A      0.217904    77A      0.226743    78A      0.228106  
      79A      0.232366    80A      0.238908    81A      0.240986  
      82A      0.244287    83A      0.248577    84A      0.252237  
      85A      0.256621    86A      0.266879    87A      0.270213  
      88A      0.276484    89A      0.280037    90A      0.284754  
      91A      0.302643    92A      0.304452    93A      0.309991  
      94A      0.316125    95A      0.322333    96A      0.326016  
      97A      0.332861    98A      0.336919    99A      0.337449  
     100A      0.346546   101A      0.352083   102A      0.355537  
     103A      0.361722   104A      0.368238   105A      0.372459  
     106A      0.377825   107A      0.381625   108A      0.388280  
     109A      0.395038   110A      0.399807   111A      0.405278  
     112A      0.406280   113A      0.409706   114A      0.417317  
     115A      0.428817   116A      0.431599   117A      0.437726  
     118A      0.439931   119A      0.446447   120A      0.447844  
     121A      0.456445   122A      0.459942   123A      0.468122  
     124A      0.470523   125A      0.473638   126A      0.478563  
     127A      0.480827   128A      0.485336   129A      0.486188  
     130A      0.490013   131A      0.493976   132A      0.503613  
     133A      0.505730   134A      0.509883   135A      0.510676  
     136A      0.514909   137A      0.519697   138A      0.522520  
     139A      0.526778   140A      0.536884   141A      0.545084  
     142A      0.545919   143A      0.556673   144A      0.557218  
     145A      0.559908   146A      0.577573   147A      0.580181  
     148A      0.589980   149A      0.594750   150A      0.599498  
     151A      0.608761   152A      0.612290   153A      0.626171  
     154A      0.634729   155A      0.642175   156A      0.645097  
     157A      0.649738   158A      0.658864   159A      0.665849  
     160A      0.670770   161A      0.678579   162A      0.684652  
     163A      0.695353   164A      0.698157   165A      0.705648  
     166A      0.717106   167A      0.726905   168A      0.733413  
     169A      0.743003   170A      0.746433   171A      0.750721  
     172A      0.756125   173A      0.760976   174A      0.767138  
     175A      0.773886   176A      0.781065   177A      0.783125  
     178A      0.797073   179A      0.812320   180A      0.813360  
     181A      0.824001   182A      0.831490   183A      0.834727  
     184A      0.838150   185A      0.844937   186A      0.849086  
     187A      0.852604   188A      0.861825   189A      0.870253  
     190A      0.873204   191A      0.878221   192A      0.883393  
     193A      0.887124   194A      0.895037   195A      0.907896  
     196A      0.916024   197A      0.918644   198A      0.920112  
     199A      0.928729   200A      0.936453   201A      0.942829  
     202A      0.947776   203A      0.957529   204A      0.965426  
     205A      0.970055   206A      0.973530   207A      0.975491  
     208A      0.986551   209A      0.994802   210A      0.997187  
     211A      0.997904   212A      1.010256   213A      1.013736  
     214A      1.018528   215A      1.023244   216A      1.027881  
     217A      1.034486   218A      1.036123   219A      1.050206  
     220A      1.056681   221A      1.066838   222A      1.068596  
     223A      1.075607   224A      1.080902   225A      1.091983  
     226A      1.100166   227A      1.102502   228A      1.106565  
     229A      1.114648   230A      1.115783   231A      1.124039  
     232A      1.129958   233A      1.134104   234A      1.138788  
     235A      1.145624   236A      1.146598   237A      1.153393  
     238A      1.165989   239A      1.173805   240A      1.179246  
     241A      1.186062   242A      1.193120   243A      1.203859  
     244A      1.211690   245A      1.224112   246A      1.231138  
     247A      1.234369   248A      1.244449   249A      1.252083  
     250A      1.260038   251A      1.266139   252A      1.272205  
     253A      1.284722   254A      1.291332   255A      1.296657  
     256A      1.300093   257A      1.308676   258A      1.309703  
     259A      1.328129   260A      1.329452   261A      1.332070  
     262A      1.338620   263A      1.351314   264A      1.355162  
     265A      1.363474   266A      1.379265   267A      1.392489  
     268A      1.397919   269A      1.404892   270A      1.412094  
     271A      1.428763   272A      1.432932   273A      1.438641  
     274A      1.447080   275A      1.453388   276A      1.463744  
     277A      1.468269   278A      1.489012   279A      1.497999  
     280A      1.499567   281A      1.505105   282A      1.516807  
     283A      1.524109   284A      1.533008   285A      1.540183  
     286A      1.557751   287A      1.560472   288A      1.568097  
     289A      1.574354   290A      1.589540   291A      1.597844  
     292A      1.601615   293A      1.606450   294A      1.613857  
     295A      1.625753   296A      1.636937   297A      1.643457  
     298A      1.656261   299A      1.657805   300A      1.668357  
     301A      1.672374   302A      1.676005   303A      1.688592  
     304A      1.693817   305A      1.709449   306A      1.714756  
     307A      1.724173   308A      1.734834   309A      1.744827  
     310A      1.756205   311A      1.768003   312A      1.771898  
     313A      1.775516   314A      1.777919   315A      1.790807  
     316A      1.806295   317A      1.818184   318A      1.829502  
     319A      1.839582   320A      1.848053   321A      1.855792  
     322A      1.861171   323A      1.862970   324A      1.880684  
     325A      1.897196   326A      1.904911   327A      1.924689  
     328A      1.942185   329A      1.944429   330A      1.955658  
     331A      1.958989   332A      1.984554   333A      2.001687  
     334A      2.004597   335A      2.009149   336A      2.012689  
     337A      2.029443   338A      2.042942   339A      2.052038  
     340A      2.059215   341A      2.072906   342A      2.086879  
     343A      2.088217   344A      2.103873   345A      2.124060  
     346A      2.129047   347A      2.141381   348A      2.146764  
     349A      2.154841   350A      2.159494   351A      2.171014  
     352A      2.175562   353A      2.184255   354A      2.194181  
     355A      2.197037   356A      2.205082   357A      2.221791  
     358A      2.227539   359A      2.247825   360A      2.255768  
     361A      2.280745   362A      2.283063   363A      2.296424  
     364A      2.303081   365A      2.312373   366A      2.329550  
     367A      2.332257   368A      2.338479   369A      2.344898  
     370A      2.363802   371A      2.366931   372A      2.379392  
     373A      2.391048   374A      2.399949   375A      2.411896  
     376A      2.421328   377A      2.428433   378A      2.442729  
     379A      2.456956   380A      2.472198   381A      2.485414  
     382A      2.492544   383A      2.502771   384A      2.514205  
     385A      2.518989   386A      2.535342   387A      2.562055  
     388A      2.574307   389A      2.587275   390A      2.597965  
     391A      2.609033   392A      2.623300   393A      2.640398  
     394A      2.654247   395A      2.655566   396A      2.669392  
     397A      2.688580   398A      2.712801   399A      2.726101  
     400A      2.748661   401A      2.759380   402A      2.765861  
     403A      2.784265   404A      2.816628   405A      2.827570  
     406A      2.852894   407A      2.854949   408A      2.876481  
     409A      2.881488   410A      2.897606   411A      2.921948  
     412A      2.974991   413A      2.990079   414A      3.016277  
     415A      3.046931   416A      3.089292   417A      3.105477  
     418A      3.127972   419A      3.136995   420A      3.177470  
     421A      3.189472   422A      3.214760   423A      3.223845  
     424A      3.248489   425A      3.255893   426A      3.307515  
     427A      3.322204   428A      3.379785   429A      3.387533  
     430A      3.404405   431A      3.408375   432A      3.436647  
     433A      3.445020   434A      3.461827   435A      3.473310  
     436A      3.482605   437A      3.495467   438A      3.511054  
     439A      3.535194   440A      3.540167   441A      3.555486  
     442A      3.565592   443A      3.575384   444A      3.584092  
     445A      3.586568   446A      3.609977   447A      3.615178  
     448A      3.630560   449A      3.655357   450A      3.663023  
     451A      3.676460   452A      3.708501   453A      3.716718  
     454A      3.725687   455A      3.732900   456A      3.740937  
     457A      3.758404   458A      3.764605   459A      3.776701  
     460A      3.787131   461A      3.797343   462A      3.807781  
     463A      3.819010   464A      3.839773   465A      3.859296  
     466A      3.872876   467A      3.876726   468A      3.890854  
     469A      3.907936   470A      3.915928   471A      3.931396  
     472A      3.938479   473A      3.946620   474A      3.948239  
     475A      3.964087   476A      3.965578   477A      3.988699  
     478A      3.995820   479A      4.002039   480A      4.032338  
     481A      4.040185   482A      4.049038   483A      4.061105  
     484A      4.065228   485A      4.077229   486A      4.090284  
     487A      4.097260   488A      4.105883   489A      4.116770  
     490A      4.138402   491A      4.172036   492A      4.184253  
     493A      4.186910   494A      4.194835   495A      4.207465  
     496A      4.221269   497A      4.225676   498A      4.237481  
     499A      4.239032   500A      4.262369   501A      4.274302  
     502A      4.286102   503A      4.291120   504A      4.304912  
     505A      4.309549   506A      4.327788   507A      4.332633  
     508A      4.336233   509A      4.357426   510A      4.365225  
     511A      4.378609   512A      4.391036   513A      4.403336  
     514A      4.416321   515A      4.428630   516A      4.449234  
     517A      4.459096   518A      4.477943   519A      4.491098  
     520A      4.503998   521A      4.519759   522A      4.540562  
     523A      4.559639   524A      4.564144   525A      4.583888  
     526A      4.593049   527A      4.617773   528A      4.633236  
     529A      4.641951   530A      4.667174   531A      4.686608  
     532A      4.697135   533A      4.705351   534A      4.746258  
     535A      4.765118   536A      4.783767   537A      4.797865  
     538A      4.811150   539A      4.821124   540A      4.827440  
     541A      4.844352   542A      4.850163   543A      4.854369  
     544A      4.888843   545A      4.898260   546A      4.928011  
     547A      4.937767   548A      4.949940   549A      4.959220  
     550A      4.979636   551A      4.997692   552A      5.005620  
     553A      5.059434   554A      5.073780   555A      5.076065  
     556A      5.102005   557A      5.109127   558A      5.142055  
     559A      5.145715   560A      5.175958   561A      5.181725  
     562A      5.195166   563A      5.226111   564A      5.248096  
     565A      5.272341   566A      5.276707   567A      5.285515  
     568A      5.299793   569A      5.330460   570A      5.346802  
     571A      5.353154   572A      5.355937   573A      5.373199  
     574A      5.402243   575A      5.405871   576A      5.430555  
     577A      5.449797   578A      5.457625   579A      5.486757  
     580A      5.493204   581A      5.549890   582A      5.553959  
     583A      5.563877   584A      5.578485   585A      5.614497  
     586A      5.626759   587A      5.641598   588A      5.651524  
     589A      5.669537   590A      5.692801   591A      5.699201  
     592A      5.711777   593A      5.730124   594A      5.737489  
     595A      5.748256   596A      5.776141   597A      5.793593  
     598A      5.817680   599A      5.837269   600A      5.852799  
     601A      5.864363   602A      5.871948   603A      5.882734  
     604A      5.890671   605A      5.907368   606A      5.934890  
     607A      5.938895   608A      5.968957   609A      5.985504  
     610A      6.001014   611A      6.004820   612A      6.027262  
     613A      6.037792   614A      6.079118   615A      6.093677  
     616A      6.119861   617A      6.141826   618A      6.147609  
     619A      6.167534   620A      6.184154   621A      6.195827  
     622A      6.212133   623A      6.225197   624A      6.267285  
     625A      6.291626   626A      6.313084   627A      6.359960  
     628A      6.420464   629A      6.441761   630A      6.507567  
     631A      6.516050   632A      6.567221   633A      6.633503  
     634A      6.662562   635A      6.690163   636A      6.720578  
     637A      6.724065   638A      6.742136   639A      6.768804  
     640A      6.778080   641A      6.827631   642A      6.876017  
     643A      6.944256   644A      6.983806   645A      7.013355  
     646A      7.046986   647A      7.090724   648A      7.122148  
     649A      7.146361   650A      7.250595   651A      7.309776  
     652A      7.360821   653A      7.409252   654A      7.449581  
     655A      7.585977   656A      7.767272   657A     16.008908  
     658A     16.113722   659A     16.286445   660A     17.726416  
     661A     18.288759   662A     18.649598   663A     19.042774  
     664A     19.427063   665A     19.762044   666A     20.401699  
     667A     21.383007  

    Final Occupation by Irrep:
              A 
    DOCC [    39 ]

  @DF-RHF Final Energy:  -503.72398721804285

   => Energetics <=

    Nuclear Repulsion Energy =            594.9261387414073852
    One-Electron Energy =               -1864.2680326959909962
    Two-Electron Energy =                 765.6179067365408173
    Total Energy =                       -503.7239872180427938

Computation Completed

*** tstop() called on c445-043.stampede2.tacc.utexas.edu at Fri Mar 19 20:35:55 2021
Module time:
	user time   =     676.85 seconds =      11.28 minutes
	system time =      46.94 seconds =       0.78 minutes
	total time  =         37 seconds =       0.62 minutes
Total time:
	user time   =     676.85 seconds =      11.28 minutes
	system time =      46.94 seconds =       0.78 minutes
	total time  =         37 seconds =       0.62 minutes
   => Loading Basis Set <=

    Name: (AUG-CC-PVTZ AUX)
    Role: RIFIT
    Keyword: DF_BASIS_MP2
    atoms 1-5   entry N          line   206 file /home1/07844/xy3866/miniconda3/envs/p4env/share/psi4/basis/aug-cc-pvtz-ri.gbs 
    atoms 6-11  entry C          line   148 file /home1/07844/xy3866/miniconda3/envs/p4env/share/psi4/basis/aug-cc-pvtz-ri.gbs 
    atoms 12-18 entry H          line    30 file /home1/07844/xy3866/miniconda3/envs/p4env/share/psi4/basis/aug-cc-pvtz-ri.gbs 


*** tstart() called on c445-043.stampede2.tacc.utexas.edu
*** at Fri Mar 19 20:35:56 2021


  //>>>>>>>>>>>>>>>>>>>>>>>>>>>>>>>>>>>//
  //               DFMP2               //
  //<<<<<<<<<<<<<<<<<<<<<<<<<<<<<<<<<<<//

	 --------------------------------------------------------
	                          DF-MP2                         
	      2nd-Order Density-Fitted Moller-Plesset Theory     
	              RMP2 Wavefunction,  32 Threads             
	                                                         
	        Rob Parrish, Justin Turney, Andy Simmonett,      
	           Ed Hohenstein, and C. David Sherrill          
	 --------------------------------------------------------

   => Auxiliary Basis Set <=

  Basis Set: (AUG-CC-PVTZ AUX)
    Blend: AUG-CC-PVTZ-RI
    Number of shells: 406
    Number of basis functions: 1488
    Number of Cartesian functions: 1881
    Spherical Harmonics?: true
    Max angular momentum: 4

	 --------------------------------------------------------
	                 NBF =   667, NAUX =  1488
	 --------------------------------------------------------
	   CLASS    FOCC     OCC    AOCC    AVIR     VIR    FVIR
	   PAIRS       0      39      39     628     628       0
	 --------------------------------------------------------

  DFHelper Memory: AOs need 4.786 GiB; user supplied 22.352 GiB. Using in-core AOs.


         ------------------------------------------------------------
                                     CPHF                           
                                  Rob Parrish                       
         ------------------------------------------------------------

  ==> Geometry <==

    Molecular point group: c1
    Full point group: C1

    Geometry (in Angstrom), charge = 0, multiplicity = 1:

       Center              X                  Y                   Z               Mass       
    ------------   -----------------  -----------------  -----------------  -----------------
         N           -1.822060123155    -0.166375314994    -0.020530265394    14.003074004430
         N           -0.303443123155    -1.850550314994    -0.004975265394    14.003074004430
         N           -0.300293123155     1.746734685006    -0.005934265394    14.003074004430
         N            2.021051876845     1.034547685006    -0.011125265394    14.003074004430
         N            2.687511876845    -1.199673314994     0.070630734606    14.003074004430
         C           -0.581736123155     0.432795685006     0.002008734606    12.000000000000
         C            0.331936876845    -0.627102314994     0.014411734606    12.000000000000
         C           -1.593430523155    -1.498761414994    -0.018876765394    12.000000000000
         C            1.693513876845    -0.266503314994     0.002227734606    12.000000000000
         C           -3.097228123155     0.530135685006     0.015206734606    12.000000000000
         C            1.023352876845     1.948489685006    -0.013665265394    12.000000000000
         H           -2.409326123155    -2.228297314994    -0.036802265394     1.007825032230
         H           -2.961594123155     1.501823685006    -0.460510265394     1.007825032230
         H           -3.839898123155    -0.050934314994    -0.533781265394     1.007825032230
         H           -3.430358123155     0.677352685006     1.045434734606     1.007825032230
         H            1.348092876845     2.986804685006    -0.025385265394     1.007825032230
         H            3.609672876845    -0.875256314994    -0.193177265394     1.007825032230
         H            2.441759876845    -2.143339314994    -0.201365265394     1.007825032230

  Nuclear repulsion =  594.926138741407385
  Reference energy  = -503.723987218042851

  ==> Basis Set <==

  Basis Set: AUG-CC-PVTZ
    Blend: AUG-CC-PVTZ
    Number of shells: 217
    Number of basis functions: 667
    Number of Cartesian functions: 780
    Spherical Harmonics?: true
    Max angular momentum: 3

  ==> CGRSolver (by Rob Parrish) <==

   Number of roots    =         1
   Preconditioning    =    JACOBI
   Convergence cutoff =     1E-06
   Maximum iterations =       100

  ==> CPHFRHamiltonian (by Rob Parrish) <== 

  ==> MemDFJK: Density-Fitted J/K Matrices <==

    J tasked:                   Yes
    K tasked:                   Yes
    wK tasked:                   No
    OpenMP threads:              32
    Memory [MiB]:             22888
    Algorithm:                 Core
    Schwarz Cutoff:           1E-12
    Mask sparsity (%):       5.8716
    Fitting Condition:        1E-10

   => Auxiliary Basis Set <=

  Basis Set: (AUG-CC-PVTZ AUX)
    Blend: AUG-CC-PVTZ-JKFIT
    Number of shells: 428
    Number of basis functions: 1466
    Number of Cartesian functions: 1826
    Spherical Harmonics?: true
    Max angular momentum: 4

  ==> CPHF Iterations <==

  => Iterations <=

             Iter  Converged  Remaining    Residual
  CGR           1          0          1   1.157E-01
  CGR           2          0          1   4.758E-02
  CGR           3          0          1   2.601E-02
  CGR           4          0          1   8.791E-03
  CGR           5          0          1   4.424E-03
  CGR           6          0          1   1.899E-03
  CGR           7          0          1   6.422E-04
  CGR           8          0          1   2.752E-04
  CGR           9          0          1   9.148E-05
  CGR          10          0          1   3.371E-05
  CGR          11          0          1   1.284E-05
  CGR          12          0          1   5.353E-06
  CGR          13          0          1   2.144E-06
  CGR          14          1          0   7.436E-07

    CGRSolver converged.

	-----------------------------------------------------------
	 ==================> DF-MP2 Energies <==================== 
	-----------------------------------------------------------
	 Reference Energy          =    -503.7239872180428506 [Eh]
	 Singles Energy            =      -0.0000000000000000 [Eh]
	 Same-Spin Energy          =      -0.5496672821351747 [Eh]
	 Opposite-Spin Energy      =      -1.6332497946916642 [Eh]
	 Correlation Energy        =      -2.1829170768268389 [Eh]
	 Total Energy              =    -505.9069042948696620 [Eh]
	-----------------------------------------------------------
	 ================> DF-SCS-MP2 Energies <================== 
	-----------------------------------------------------------
	 SCS Same-Spin Scale       =       0.3333333333333333 [-]
	 SCS Opposite-Spin Scale   =       1.2000000000000000 [-]
	 SCS Same-Spin Energy      =      -0.1832224273783916 [Eh]
	 SCS Opposite-Spin Energy  =      -1.9598997536299969 [Eh]
	 SCS Correlation Energy    =      -2.1431221810083882 [Eh]
	 SCS Total Energy          =    -505.8671093990512304 [Eh]
	-----------------------------------------------------------



Properties will be evaluated at   0.000000,  -0.000000,   0.000000 [a0]

Properties computed using the MP2 density matrix

  Nuclear Dipole Moment: [e a0]
     X:    -4.9205      Y:    -0.1223      Z:    -0.3803

  Electronic Dipole Moment: [e a0]
     X:     3.8653      Y:    -0.3282      Z:     0.0999

  Dipole Moment: [e a0]
     X:    -1.0552      Y:    -0.4506      Z:    -0.2804     Total:     1.1811

  Dipole Moment: [D]
     X:    -2.6821      Y:    -1.1452      Z:    -0.7127     Total:     3.0022


*** tstop() called on c445-043.stampede2.tacc.utexas.edu at Fri Mar 19 20:39:51 2021
Module time:
	user time   =    2024.60 seconds =      33.74 minutes
	system time =      67.55 seconds =       1.13 minutes
	total time  =        235 seconds =       3.92 minutes
Total time:
	user time   =    2702.36 seconds =      45.04 minutes
	system time =     114.51 seconds =       1.91 minutes
	total time  =        273 seconds =       4.55 minutes

    Psi4 stopped on: Friday, 19 March 2021 08:39PM
    Psi4 wall time for execution: 0:04:34.97

*** Psi4 exiting successfully. Buy a developer a beer!
