
    -----------------------------------------------------------------------
          Psi4: An Open-Source Ab Initio Electronic Structure Package
                               Psi4 1.4a3.dev225 

                         Git: Rev {master} 7105e37 


    D. G. A. Smith, L. A. Burns, A. C. Simmonett, R. M. Parrish,
    M. C. Schieber, R. Galvelis, P. Kraus, H. Kruse, R. Di Remigio,
    A. Alenaizan, A. M. James, S. Lehtola, J. P. Misiewicz, M. Scheurer,
    R. A. Shaw, J. B. Schriber, Y. Xie, Z. L. Glick, D. A. Sirianni,
    J. S. O'Brien, J. M. Waldrop, A. Kumar, E. G. Hohenstein,
    B. P. Pritchard, B. R. Brooks, H. F. Schaefer III, A. Yu. Sokolov,
    K. Patkowski, A. E. DePrince III, U. Bozkaya, R. A. King,
    F. A. Evangelista, J. M. Turney, T. D. Crawford, C. D. Sherrill,
    J. Chem. Phys. 152(18) 184108 (2020). https://doi.org/10.1063/5.0006002

                            Additional Code Authors
    E. T. Seidl, C. L. Janssen, E. F. Valeev, M. L. Leininger,
    J. F. Gonthier, R. M. Richard, H. R. McAlexander, M. Saitow, X. Wang,
    P. Verma, and M. H. Lechner

             Previous Authors, Complete List of Code Contributors,
                       and Citations for Specific Modules
    https://github.com/psi4/psi4/blob/master/codemeta.json
    https://github.com/psi4/psi4/graphs/contributors
    http://psicode.org/psi4manual/master/introduction.html#citing-psifour

    -----------------------------------------------------------------------


    Psi4 started on: Sunday, 21 March 2021 02:55AM

    Process ID: 233859
    Host:       c445-114.stampede2.tacc.utexas.edu
    PSIDATADIR: /home1/07844/xy3866/miniconda3/envs/p4env/share/psi4
    Memory:     500.0 MiB
    Threads:    32
    
  ==> Input File <==

--------------------------------------------------------------------------
#psi4
#
memory 32 gb

molecule  {
0 1
  N        0.0358730    -0.9798690     0.3249120
  N        1.3785830     0.9084480    -0.0806070
  C       -1.2345860    -0.4058730     0.1373700
  C        1.2874650    -0.4145780     0.1205110
  C       -2.2834660    -1.2695640    -0.2193620
  C       -1.5135820     0.9493270     0.3763290
  C        2.4196470    -1.2564020     0.1639730
  C       -3.5834040    -0.7896780    -0.3581100
  C       -2.8175520     1.4190740     0.2143410
  C       -3.8597110     0.5618000    -0.1426300
  C        3.6734950    -0.6966520    -0.0183070
  C        3.7809840     0.6818220    -0.2348670
  C        2.6094310     1.4280530    -0.2543460
  H        0.0344622    -1.9434204     0.2924543
  H       -2.0721120    -2.3220440    -0.4067350
  H       -0.7127900     1.6203970     0.6554980
  H        2.3062980    -2.3249110     0.3351780
  H       -4.3793760    -1.4759950    -0.6376530
  H       -3.0201620     2.4727340     0.3929930
  H       -4.8713210     0.9418730    -0.2585160
  H        4.5591860    -1.3270150     0.0072260
  H        4.7445120     1.1601010    -0.3803610
  H        2.6378470     2.5042230    -0.4179490
units angstrom
no_reorient  #important for SAPT in psi4, default
symmetry c1  #important for SAPT in psi4, default
}

set PROPERTIES_ORIGIN ["COM"]
properties('MP2/aug-cc-pvtz', properties = ['dipole'])
--------------------------------------------------------------------------

  Memory set to  29.802 GiB by Python driver.
    SCF Algorithm Type (re)set to DF.

*** tstart() called on c445-114.stampede2.tacc.utexas.edu
*** at Sun Mar 21 02:55:15 2021

   => Loading Basis Set <=

    Name: AUG-CC-PVTZ
    Role: ORBITAL
    Keyword: BASIS
    atoms 1-2   entry N          line   285 file /home1/07844/xy3866/miniconda3/envs/p4env/share/psi4/basis/aug-cc-pvtz.gbs 
    atoms 3-13  entry C          line   239 file /home1/07844/xy3866/miniconda3/envs/p4env/share/psi4/basis/aug-cc-pvtz.gbs 
    atoms 14-23 entry H          line    40 file /home1/07844/xy3866/miniconda3/envs/p4env/share/psi4/basis/aug-cc-pvtz.gbs 


         ---------------------------------------------------------
                                   SCF
               by Justin Turney, Rob Parrish, Andy Simmonett
                          and Daniel G. A. Smith
                              RHF Reference
                       32 Threads,  30517 MiB Core
         ---------------------------------------------------------

  ==> Geometry <==

    Molecular point group: c1
    Full point group: C1

    Geometry (in Angstrom), charge = 0, multiplicity = 1:

       Center              X                  Y                   Z               Mass       
    ------------   -----------------  -----------------  -----------------  -----------------
         N            0.031334806403    -0.984504028478     0.322450219296    14.003074004430
         N            1.374044806403     0.903812971522    -0.083068780704    14.003074004430
         C           -1.239124193597    -0.410508028478     0.134908219296    12.000000000000
         C            1.282926806403    -0.419213028478     0.118049219296    12.000000000000
         C           -2.288004193597    -1.274199028478    -0.221823780704    12.000000000000
         C           -1.518120193597     0.944691971522     0.373867219296    12.000000000000
         C            2.415108806403    -1.261037028478     0.161511219296    12.000000000000
         C           -3.587942193597    -0.794313028478    -0.360571780704    12.000000000000
         C           -2.822090193597     1.414438971522     0.211879219296    12.000000000000
         C           -3.864249193597     0.557164971522    -0.145091780704    12.000000000000
         C            3.668956806403    -0.701287028478    -0.020768780704    12.000000000000
         C            3.776445806403     0.677186971522    -0.237328780704    12.000000000000
         C            2.604892806403     1.423417971522    -0.256807780704    12.000000000000
         H            0.029924006403    -1.948055428478     0.289992519296     1.007825032230
         H           -2.076650193597    -2.326679028478    -0.409196780704     1.007825032230
         H           -0.717328193597     1.615761971522     0.653036219296     1.007825032230
         H            2.301759806403    -2.329546028478     0.332716219296     1.007825032230
         H           -4.383914193597    -1.480630028478    -0.640114780704     1.007825032230
         H           -3.024700193597     2.468098971522     0.390531219296     1.007825032230
         H           -4.875859193597     0.937237971522    -0.260977780704     1.007825032230
         H            4.554647806403    -1.331650028478     0.004764219296     1.007825032230
         H            4.739973806403     1.155465971522    -0.382822780704     1.007825032230
         H            2.633308806403     2.499587971522    -0.420410780704     1.007825032230

  Running in c1 symmetry.

  Rotational constants: A =      0.08619  B =      0.01414  C =      0.01233 [cm^-1]
  Rotational constants: A =   2584.00507  B =    424.03779  C =    369.64075 [MHz]
  Nuclear repulsion =  698.899638141214723

  Charge       = 0
  Multiplicity = 1
  Electrons    = 90
  Nalpha       = 45
  Nbeta        = 45

  ==> Algorithm <==

  SCF Algorithm Type is DF.
  DIIS enabled.
  MOM disabled.
  Fractional occupation disabled.
  Guess Type is SAD.
  Energy threshold   = 1.00e-10
  Density threshold  = 1.00e-10
  Integral threshold = 1.00e-12

  ==> Primary Basis <==

  Basis Set: AUG-CC-PVTZ
    Blend: AUG-CC-PVTZ
    Number of shells: 272
    Number of basis functions: 828
    Number of Cartesian functions: 965
    Spherical Harmonics?: true
    Max angular momentum: 3

   => Loading Basis Set <=

    Name: (AUG-CC-PVTZ AUX)
    Role: JKFIT
    Keyword: DF_BASIS_SCF
    atoms 1-2   entry N          line   224 file /home1/07844/xy3866/miniconda3/envs/p4env/share/psi4/basis/aug-cc-pvtz-jkfit.gbs 
    atoms 3-13  entry C          line   162 file /home1/07844/xy3866/miniconda3/envs/p4env/share/psi4/basis/aug-cc-pvtz-jkfit.gbs 
    atoms 14-23 entry H          line    70 file /home1/07844/xy3866/miniconda3/envs/p4env/share/psi4/basis/aug-cc-pvtz-jkfit.gbs 

  ==> Integral Setup <==

  DFHelper Memory: AOs need 7.970 GiB; user supplied 22.352 GiB. Using in-core AOs.

  ==> MemDFJK: Density-Fitted J/K Matrices <==

    J tasked:                   Yes
    K tasked:                   Yes
    wK tasked:                   No
    OpenMP threads:              32
    Memory [MiB]:             22888
    Algorithm:                 Core
    Schwarz Cutoff:           1E-12
    Mask sparsity (%):      17.4117
    Fitting Condition:        1E-10

   => Auxiliary Basis Set <=

  Basis Set: (AUG-CC-PVTZ AUX)
    Blend: AUG-CC-PVTZ-JKFIT
    Number of shells: 530
    Number of basis functions: 1812
    Number of Cartesian functions: 2253
    Spherical Harmonics?: true
    Max angular momentum: 4

  Minimum eigenvalue in the overlap matrix is 5.7702332012E-07.
  Reciprocal condition number of the overlap matrix is 2.9819103428E-08.
    Using symmetric orthogonalization.

  ==> Pre-Iterations <==

  SCF Guess: Superposition of Atomic Densities via on-the-fly atomic UHF (no occupation information).

   -------------------------
    Irrep   Nso     Nmo    
   -------------------------
     A        828     828 
   -------------------------
    Total     828     828
   -------------------------

  ==> Iterations <==

                           Total Energy        Delta E     RMS |[F,P]|

   @DF-RHF iter SAD:  -530.93285436282235   -5.30933e+02   0.00000e+00 
   @DF-RHF iter   1:  -531.10823122861336   -1.75377e-01   9.14780e-04 DIIS
   @DF-RHF iter   2:  -531.38810404652156   -2.79873e-01   4.18596e-04 DIIS
   @DF-RHF iter   3:  -531.44576202425242   -5.76580e-02   8.83327e-05 DIIS
   @DF-RHF iter   4:  -531.44938059656920   -3.61857e-03   3.82498e-05 DIIS
   @DF-RHF iter   5:  -531.44989524622451   -5.14650e-04   6.81037e-06 DIIS
   @DF-RHF iter   6:  -531.44992759453919   -3.23483e-05   2.81663e-06 DIIS
   @DF-RHF iter   7:  -531.44993338614563   -5.79161e-06   1.15318e-06 DIIS
   @DF-RHF iter   8:  -531.44993463928654   -1.25314e-06   4.50676e-07 DIIS
   @DF-RHF iter   9:  -531.44993488434932   -2.45063e-07   2.00234e-07 DIIS
   @DF-RHF iter  10:  -531.44993493395680   -4.96075e-08   1.00236e-07 DIIS
   @DF-RHF iter  11:  -531.44993495004951   -1.60927e-08   3.96339e-08 DIIS
   @DF-RHF iter  12:  -531.44993495249082   -2.44131e-09   1.49153e-08 DIIS
   @DF-RHF iter  13:  -531.44993495271638   -2.25555e-10   3.76382e-09 DIIS
   @DF-RHF iter  14:  -531.44993495273025   -1.38698e-11   1.33314e-09 DIIS
   @DF-RHF iter  15:  -531.44993495273195   -1.70530e-12   6.92414e-10 DIIS
   @DF-RHF iter  16:  -531.44993495273081    1.13687e-12   3.07802e-10 DIIS
   @DF-RHF iter  17:  -531.44993495273184   -1.02318e-12   1.60614e-10 DIIS
   @DF-RHF iter  18:  -531.44993495273206   -2.27374e-13   6.31429e-11 DIIS
  Energy and wave function converged.


  ==> Post-Iterations <==

    Orbital Energies [Eh]
    ---------------------

    Doubly Occupied:                                                      

       1A    -15.587047     2A    -15.556444     3A    -11.328048  
       4A    -11.282458     5A    -11.280051     6A    -11.263938  
       7A    -11.239842     8A    -11.235294     9A    -11.231881  
      10A    -11.230616    11A    -11.230614    12A    -11.223452  
      13A    -11.220661    14A     -1.299447    15A     -1.225420  
      16A     -1.135410    17A     -1.088297    18A     -1.035241  
      19A     -1.009624    20A     -0.983255    21A     -0.870161  
      22A     -0.863349    23A     -0.825132    24A     -0.804236  
      25A     -0.731369    26A     -0.718435    27A     -0.680534  
      28A     -0.664871    29A     -0.643620    30A     -0.624668  
      31A     -0.601963    32A     -0.597494    33A     -0.584643  
      34A     -0.580777    35A     -0.569024    36A     -0.534604  
      37A     -0.518270    38A     -0.507804    39A     -0.489539  
      40A     -0.460640    41A     -0.419026    42A     -0.386254  
      43A     -0.343718    44A     -0.332491    45A     -0.282755  

    Virtual:                                                              

      46A      0.023180    47A      0.029108    48A      0.032324  
      49A      0.039555    50A      0.040224    51A      0.051970  
      52A      0.054362    53A      0.055765    54A      0.066402  
      55A      0.074352    56A      0.080747    57A      0.088997  
      58A      0.091690    59A      0.095986    60A      0.096531  
      61A      0.102246    62A      0.104330    63A      0.108384  
      64A      0.112819    65A      0.114918    66A      0.117021  
      67A      0.119187    68A      0.119859    69A      0.122411  
      70A      0.124906    71A      0.128437    72A      0.132146  
      73A      0.134714    74A      0.138268    75A      0.141203  
      76A      0.144136    77A      0.144889    78A      0.151352  
      79A      0.153118    80A      0.155047    81A      0.155398  
      82A      0.165088    83A      0.166633    84A      0.174379  
      85A      0.176447    86A      0.179795    87A      0.183146  
      88A      0.186724    89A      0.192300    90A      0.207261  
      91A      0.210821    92A      0.214463    93A      0.221359  
      94A      0.227268    95A      0.232151    96A      0.234531  
      97A      0.239342    98A      0.248849    99A      0.251053  
     100A      0.255260   101A      0.261621   102A      0.266541  
     103A      0.269249   104A      0.270805   105A      0.279128  
     106A      0.281553   107A      0.286552   108A      0.291103  
     109A      0.295871   110A      0.301207   111A      0.302169  
     112A      0.304342   113A      0.305702   114A      0.309980  
     115A      0.315241   116A      0.318046   117A      0.322245  
     118A      0.323302   119A      0.328892   120A      0.330163  
     121A      0.334206   122A      0.334471   123A      0.339096  
     124A      0.342816   125A      0.344508   126A      0.353396  
     127A      0.356969   128A      0.362771   129A      0.366261  
     130A      0.368070   131A      0.373435   132A      0.377164  
     133A      0.388574   134A      0.391696   135A      0.401737  
     136A      0.404214   137A      0.409012   138A      0.417940  
     139A      0.422391   140A      0.425330   141A      0.426694  
     142A      0.430751   143A      0.434182   144A      0.440256  
     145A      0.442453   146A      0.447040   147A      0.453512  
     148A      0.455774   149A      0.457467   150A      0.460295  
     151A      0.463925   152A      0.470515   153A      0.474094  
     154A      0.474670   155A      0.477579   156A      0.481315  
     157A      0.482559   158A      0.487741   159A      0.490792  
     160A      0.493102   161A      0.495503   162A      0.500715  
     163A      0.504369   164A      0.505476   165A      0.510596  
     166A      0.514136   167A      0.518462   168A      0.519770  
     169A      0.523842   170A      0.527453   171A      0.528648  
     172A      0.535528   173A      0.536896   174A      0.541898  
     175A      0.544867   176A      0.547427   177A      0.552580  
     178A      0.554896   179A      0.558224   180A      0.560851  
     181A      0.562955   182A      0.570301   183A      0.579421  
     184A      0.589096   185A      0.591973   186A      0.594777  
     187A      0.596704   188A      0.608769   189A      0.619363  
     190A      0.627051   191A      0.633805   192A      0.634234  
     193A      0.638174   194A      0.647853   195A      0.650359  
     196A      0.652456   197A      0.657628   198A      0.660826  
     199A      0.665186   200A      0.670547   201A      0.680791  
     202A      0.683468   203A      0.687158   204A      0.692415  
     205A      0.703546   206A      0.707348   207A      0.710846  
     208A      0.714684   209A      0.719756   210A      0.726033  
     211A      0.729139   212A      0.736508   213A      0.740166  
     214A      0.745169   215A      0.747476   216A      0.751351  
     217A      0.756165   218A      0.768771   219A      0.770360  
     220A      0.779036   221A      0.785093   222A      0.789422  
     223A      0.794540   224A      0.801001   225A      0.810167  
     226A      0.814845   227A      0.822740   228A      0.828303  
     229A      0.829220   230A      0.835775   231A      0.836903  
     232A      0.844141   233A      0.850694   234A      0.858767  
     235A      0.860151   236A      0.861832   237A      0.870328  
     238A      0.874126   239A      0.877051   240A      0.882407  
     241A      0.886748   242A      0.890073   243A      0.893654  
     244A      0.897791   245A      0.900846   246A      0.904478  
     247A      0.912749   248A      0.914951   249A      0.919291  
     250A      0.923053   251A      0.927749   252A      0.931523  
     253A      0.940812   254A      0.943865   255A      0.947545  
     256A      0.951600   257A      0.958661   258A      0.967663  
     259A      0.973457   260A      0.977673   261A      0.984459  
     262A      0.987033   263A      0.993265   264A      0.998067  
     265A      1.003619   266A      1.008538   267A      1.009243  
     268A      1.017232   269A      1.025064   270A      1.028107  
     271A      1.038600   272A      1.043596   273A      1.045501  
     274A      1.048392   275A      1.053888   276A      1.057163  
     277A      1.063237   278A      1.065291   279A      1.070032  
     280A      1.073752   281A      1.080147   282A      1.084113  
     283A      1.088744   284A      1.092529   285A      1.095256  
     286A      1.099838   287A      1.101541   288A      1.103372  
     289A      1.109985   290A      1.114357   291A      1.118024  
     292A      1.123127   293A      1.125822   294A      1.132176  
     295A      1.136019   296A      1.141338   297A      1.141473  
     298A      1.146604   299A      1.159002   300A      1.165112  
     301A      1.165612   302A      1.170210   303A      1.180881  
     304A      1.184441   305A      1.186450   306A      1.189940  
     307A      1.195902   308A      1.199800   309A      1.201412  
     310A      1.204614   311A      1.205501   312A      1.210180  
     313A      1.213592   314A      1.219330   315A      1.223786  
     316A      1.228952   317A      1.234723   318A      1.240792  
     319A      1.248941   320A      1.250083   321A      1.253521  
     322A      1.260427   323A      1.267046   324A      1.270565  
     325A      1.278204   326A      1.285800   327A      1.295255  
     328A      1.297413   329A      1.305171   330A      1.310838  
     331A      1.314542   332A      1.326208   333A      1.338165  
     334A      1.347530   335A      1.355108   336A      1.360417  
     337A      1.364378   338A      1.372102   339A      1.380112  
     340A      1.387917   341A      1.395126   342A      1.401332  
     343A      1.406374   344A      1.413858   345A      1.416651  
     346A      1.418702   347A      1.423599   348A      1.428641  
     349A      1.438771   350A      1.440207   351A      1.452607  
     352A      1.458936   353A      1.469104   354A      1.470226  
     355A      1.476555   356A      1.488525   357A      1.498987  
     358A      1.504606   359A      1.508945   360A      1.520424  
     361A      1.526718   362A      1.528851   363A      1.535581  
     364A      1.540414   365A      1.542125   366A      1.554372  
     367A      1.567559   368A      1.571275   369A      1.576572  
     370A      1.580657   371A      1.584844   372A      1.592668  
     373A      1.606731   374A      1.612852   375A      1.618947  
     376A      1.622789   377A      1.636164   378A      1.641897  
     379A      1.660108   380A      1.664689   381A      1.677612  
     382A      1.682267   383A      1.688443   384A      1.705867  
     385A      1.711663   386A      1.718023   387A      1.725307  
     388A      1.727599   389A      1.737301   390A      1.748198  
     391A      1.753368   392A      1.758301   393A      1.773693  
     394A      1.783505   395A      1.785774   396A      1.790204  
     397A      1.799558   398A      1.801722   399A      1.814276  
     400A      1.823318   401A      1.835438   402A      1.839054  
     403A      1.851691   404A      1.853030   405A      1.857178  
     406A      1.863383   407A      1.863760   408A      1.874278  
     409A      1.882154   410A      1.890039   411A      1.897873  
     412A      1.905832   413A      1.916339   414A      1.917414  
     415A      1.928556   416A      1.935459   417A      1.946859  
     418A      1.948400   419A      1.950787   420A      1.966858  
     421A      1.980674   422A      1.992204   423A      1.995710  
     424A      2.004043   425A      2.009215   426A      2.012869  
     427A      2.016512   428A      2.028444   429A      2.033261  
     430A      2.035676   431A      2.043856   432A      2.048076  
     433A      2.055451   434A      2.057330   435A      2.064421  
     436A      2.071099   437A      2.076240   438A      2.083558  
     439A      2.088280   440A      2.098782   441A      2.103770  
     442A      2.110793   443A      2.115074   444A      2.123167  
     445A      2.135864   446A      2.141853   447A      2.152290  
     448A      2.166307   449A      2.177133   450A      2.186324  
     451A      2.190303   452A      2.196515   453A      2.202321  
     454A      2.215988   455A      2.226655   456A      2.231575  
     457A      2.245397   458A      2.253836   459A      2.261961  
     460A      2.270175   461A      2.277759   462A      2.278184  
     463A      2.293381   464A      2.294817   465A      2.310288  
     466A      2.319598   467A      2.324826   468A      2.350512  
     469A      2.357258   470A      2.366860   471A      2.379262  
     472A      2.392691   473A      2.396718   474A      2.397942  
     475A      2.411951   476A      2.421575   477A      2.424632  
     478A      2.434498   479A      2.448219   480A      2.455452  
     481A      2.463513   482A      2.469202   483A      2.480917  
     484A      2.496523   485A      2.501841   486A      2.515490  
     487A      2.522386   488A      2.544371   489A      2.562021  
     490A      2.573004   491A      2.589999   492A      2.598741  
     493A      2.609174   494A      2.621023   495A      2.641037  
     496A      2.647248   497A      2.666178   498A      2.675842  
     499A      2.690593   500A      2.697181   501A      2.722654  
     502A      2.738458   503A      2.741753   504A      2.762037  
     505A      2.776214   506A      2.788781   507A      2.798243  
     508A      2.808343   509A      2.825649   510A      2.831410  
     511A      2.861330   512A      2.864264   513A      2.890996  
     514A      2.903992   515A      2.920613   516A      2.929360  
     517A      2.955235   518A      2.978954   519A      3.014873  
     520A      3.040453   521A      3.052608   522A      3.088729  
     523A      3.097273   524A      3.124047   525A      3.149646  
     526A      3.162285   527A      3.193527   528A      3.207499  
     529A      3.219510   530A      3.224794   531A      3.231524  
     532A      3.245440   533A      3.256588   534A      3.282303  
     535A      3.299143   536A      3.304001   537A      3.310686  
     538A      3.322490   539A      3.347277   540A      3.357134  
     541A      3.363221   542A      3.378260   543A      3.385359  
     544A      3.389057   545A      3.393520   546A      3.406941  
     547A      3.410204   548A      3.424372   549A      3.429982  
     550A      3.440347   551A      3.457186   552A      3.461390  
     553A      3.468972   554A      3.473231   555A      3.478345  
     556A      3.488269   557A      3.497522   558A      3.520748  
     559A      3.527260   560A      3.536913   561A      3.544649  
     562A      3.551950   563A      3.556896   564A      3.563147  
     565A      3.572102   566A      3.575847   567A      3.577846  
     568A      3.590371   569A      3.601728   570A      3.612686  
     571A      3.618538   572A      3.631283   573A      3.633380  
     574A      3.645565   575A      3.648930   576A      3.667860  
     577A      3.673183   578A      3.681341   579A      3.693555  
     580A      3.696405   581A      3.705704   582A      3.716778  
     583A      3.724371   584A      3.739373   585A      3.765102  
     586A      3.768090   587A      3.773815   588A      3.784379  
     589A      3.804507   590A      3.806292   591A      3.818931  
     592A      3.829226   593A      3.836956   594A      3.850756  
     595A      3.861306   596A      3.866773   597A      3.872672  
     598A      3.878987   599A      3.888805   600A      3.894158  
     601A      3.898383   602A      3.918343   603A      3.919611  
     604A      3.926996   605A      3.938158   606A      3.942027  
     607A      3.946139   608A      3.958907   609A      3.964352  
     610A      3.973812   611A      3.984612   612A      3.987648  
     613A      3.993493   614A      3.997417   615A      4.002722  
     616A      4.019928   617A      4.031863   618A      4.036035  
     619A      4.041849   620A      4.053496   621A      4.071838  
     622A      4.080381   623A      4.085754   624A      4.094366  
     625A      4.110188   626A      4.120376   627A      4.128950  
     628A      4.134430   629A      4.143522   630A      4.152694  
     631A      4.159130   632A      4.160405   633A      4.172222  
     634A      4.180338   635A      4.193704   636A      4.209644  
     637A      4.214975   638A      4.226210   639A      4.233175  
     640A      4.244520   641A      4.258292   642A      4.259540  
     643A      4.269914   644A      4.281768   645A      4.287520  
     646A      4.291573   647A      4.296628   648A      4.302662  
     649A      4.316288   650A      4.325760   651A      4.328246  
     652A      4.347171   653A      4.352321   654A      4.379583  
     655A      4.385121   656A      4.393067   657A      4.396464  
     658A      4.399288   659A      4.411374   660A      4.423291  
     661A      4.424912   662A      4.431600   663A      4.433724  
     664A      4.452524   665A      4.459299   666A      4.462870  
     667A      4.469328   668A      4.483731   669A      4.487319  
     670A      4.497466   671A      4.505368   672A      4.518228  
     673A      4.530484   674A      4.540485   675A      4.561043  
     676A      4.569792   677A      4.577573   678A      4.591097  
     679A      4.615118   680A      4.623976   681A      4.638106  
     682A      4.656638   683A      4.667960   684A      4.673503  
     685A      4.697001   686A      4.703174   687A      4.722722  
     688A      4.737434   689A      4.742639   690A      4.754965  
     691A      4.779421   692A      4.789325   693A      4.797797  
     694A      4.800348   695A      4.821367   696A      4.834900  
     697A      4.853482   698A      4.885762   699A      4.895574  
     700A      4.906724   701A      4.913069   702A      4.927020  
     703A      4.939253   704A      4.947309   705A      4.955352  
     706A      4.962040   707A      4.975037   708A      4.986436  
     709A      4.999884   710A      5.005986   711A      5.028631  
     712A      5.038155   713A      5.069697   714A      5.074098  
     715A      5.080650   716A      5.099560   717A      5.101154  
     718A      5.104257   719A      5.110865   720A      5.122669  
     721A      5.131201   722A      5.137597   723A      5.146527  
     724A      5.162338   725A      5.169501   726A      5.184974  
     727A      5.186089   728A      5.195738   729A      5.203118  
     730A      5.208862   731A      5.216273   732A      5.238903  
     733A      5.251687   734A      5.263974   735A      5.291880  
     736A      5.317185   737A      5.319171   738A      5.334008  
     739A      5.345562   740A      5.347887   741A      5.357918  
     742A      5.367958   743A      5.384165   744A      5.400949  
     745A      5.429499   746A      5.438897   747A      5.462656  
     748A      5.470219   749A      5.497728   750A      5.520270  
     751A      5.546830   752A      5.562052   753A      5.568601  
     754A      5.588619   755A      5.606774   756A      5.627793  
     757A      5.630912   758A      5.657051   759A      5.681291  
     760A      5.688447   761A      5.706571   762A      5.718327  
     763A      5.774070   764A      5.774692   765A      5.802776  
     766A      5.810136   767A      5.838297   768A      5.847307  
     769A      5.855833   770A      5.876455   771A      5.900961  
     772A      5.916911   773A      5.934018   774A      5.946020  
     775A      5.978472   776A      5.999895   777A      6.052328  
     778A      6.102887   779A      6.133524   780A      6.152306  
     781A      6.180852   782A      6.194245   783A      6.224585  
     784A      6.249213   785A      6.262957   786A      6.275965  
     787A      6.289332   788A      6.315324   789A      6.356052  
     790A      6.382531   791A      6.406714   792A      6.460068  
     793A      6.478508   794A      6.500601   795A      6.534850  
     796A      6.603662   797A      6.628907   798A      6.717720  
     799A      6.718347   800A      6.746413   801A      6.778958  
     802A      6.822449   803A      6.912151   804A      6.922548  
     805A      6.982266   806A      7.000878   807A      7.041170  
     808A      7.064894   809A      7.121497   810A      7.198101  
     811A      7.243742   812A      7.313177   813A      7.447455  
     814A      7.595682   815A      7.776790   816A     15.851459  
     817A     16.189881   818A     16.274349   819A     16.537791  
     820A     17.751562   821A     18.593757   822A     18.911908  
     823A     19.368651   824A     19.547976   825A     19.729774  
     826A     19.938205   827A     20.367828   828A     21.485574  

    Final Occupation by Irrep:
              A 
    DOCC [    45 ]

  @DF-RHF Final Energy:  -531.44993495273206

   => Energetics <=

    Nuclear Repulsion Energy =            698.8996381412147230
    One-Electron Energy =               -2106.0543191894680604
    Two-Electron Energy =                 875.7047460955211591
    Total Energy =                       -531.4499349527320646

Computation Completed

*** tstop() called on c445-114.stampede2.tacc.utexas.edu at Sun Mar 21 02:56:15 2021
Module time:
	user time   =    1169.75 seconds =      19.50 minutes
	system time =      65.55 seconds =       1.09 minutes
	total time  =         60 seconds =       1.00 minutes
Total time:
	user time   =    1169.75 seconds =      19.50 minutes
	system time =      65.55 seconds =       1.09 minutes
	total time  =         60 seconds =       1.00 minutes
   => Loading Basis Set <=

    Name: (AUG-CC-PVTZ AUX)
    Role: RIFIT
    Keyword: DF_BASIS_MP2
    atoms 1-2   entry N          line   206 file /home1/07844/xy3866/miniconda3/envs/p4env/share/psi4/basis/aug-cc-pvtz-ri.gbs 
    atoms 3-13  entry C          line   148 file /home1/07844/xy3866/miniconda3/envs/p4env/share/psi4/basis/aug-cc-pvtz-ri.gbs 
    atoms 14-23 entry H          line    30 file /home1/07844/xy3866/miniconda3/envs/p4env/share/psi4/basis/aug-cc-pvtz-ri.gbs 


*** tstart() called on c445-114.stampede2.tacc.utexas.edu
*** at Sun Mar 21 02:56:16 2021


  //>>>>>>>>>>>>>>>>>>>>>>>>>>>>>>>>>>>//
  //               DFMP2               //
  //<<<<<<<<<<<<<<<<<<<<<<<<<<<<<<<<<<<//

	 --------------------------------------------------------
	                          DF-MP2                         
	      2nd-Order Density-Fitted Moller-Plesset Theory     
	              RMP2 Wavefunction,  32 Threads             
	                                                         
	        Rob Parrish, Justin Turney, Andy Simmonett,      
	           Ed Hohenstein, and C. David Sherrill          
	 --------------------------------------------------------

   => Auxiliary Basis Set <=

  Basis Set: (AUG-CC-PVTZ AUX)
    Blend: AUG-CC-PVTZ-RI
    Number of shells: 504
    Number of basis functions: 1838
    Number of Cartesian functions: 2318
    Spherical Harmonics?: true
    Max angular momentum: 4

	 --------------------------------------------------------
	                 NBF =   828, NAUX =  1838
	 --------------------------------------------------------
	   CLASS    FOCC     OCC    AOCC    AVIR     VIR    FVIR
	   PAIRS       0      45      45     783     783       0
	 --------------------------------------------------------

  DFHelper Memory: AOs need 8.519 GiB; user supplied 22.352 GiB. Using in-core AOs.


         ------------------------------------------------------------
                                     CPHF                           
                                  Rob Parrish                       
         ------------------------------------------------------------

  ==> Geometry <==

    Molecular point group: c1
    Full point group: C1

    Geometry (in Angstrom), charge = 0, multiplicity = 1:

       Center              X                  Y                   Z               Mass       
    ------------   -----------------  -----------------  -----------------  -----------------
         N            0.031334806403    -0.984504028478     0.322450219296    14.003074004430
         N            1.374044806403     0.903812971522    -0.083068780704    14.003074004430
         C           -1.239124193597    -0.410508028478     0.134908219296    12.000000000000
         C            1.282926806403    -0.419213028478     0.118049219296    12.000000000000
         C           -2.288004193597    -1.274199028478    -0.221823780704    12.000000000000
         C           -1.518120193597     0.944691971522     0.373867219296    12.000000000000
         C            2.415108806403    -1.261037028478     0.161511219296    12.000000000000
         C           -3.587942193597    -0.794313028478    -0.360571780704    12.000000000000
         C           -2.822090193597     1.414438971522     0.211879219296    12.000000000000
         C           -3.864249193597     0.557164971522    -0.145091780704    12.000000000000
         C            3.668956806403    -0.701287028478    -0.020768780704    12.000000000000
         C            3.776445806403     0.677186971522    -0.237328780704    12.000000000000
         C            2.604892806403     1.423417971522    -0.256807780704    12.000000000000
         H            0.029924006403    -1.948055428478     0.289992519296     1.007825032230
         H           -2.076650193597    -2.326679028478    -0.409196780704     1.007825032230
         H           -0.717328193597     1.615761971522     0.653036219296     1.007825032230
         H            2.301759806403    -2.329546028478     0.332716219296     1.007825032230
         H           -4.383914193597    -1.480630028478    -0.640114780704     1.007825032230
         H           -3.024700193597     2.468098971522     0.390531219296     1.007825032230
         H           -4.875859193597     0.937237971522    -0.260977780704     1.007825032230
         H            4.554647806403    -1.331650028478     0.004764219296     1.007825032230
         H            4.739973806403     1.155465971522    -0.382822780704     1.007825032230
         H            2.633308806403     2.499587971522    -0.420410780704     1.007825032230

  Nuclear repulsion =  698.899638141214723
  Reference energy  = -531.449934952732065

  ==> Basis Set <==

  Basis Set: AUG-CC-PVTZ
    Blend: AUG-CC-PVTZ
    Number of shells: 272
    Number of basis functions: 828
    Number of Cartesian functions: 965
    Spherical Harmonics?: true
    Max angular momentum: 3

  ==> CGRSolver (by Rob Parrish) <==

   Number of roots    =         1
   Preconditioning    =    JACOBI
   Convergence cutoff =     1E-06
   Maximum iterations =       100

  ==> CPHFRHamiltonian (by Rob Parrish) <== 

  ==> MemDFJK: Density-Fitted J/K Matrices <==

    J tasked:                   Yes
    K tasked:                   Yes
    wK tasked:                   No
    OpenMP threads:              32
    Memory [MiB]:             22888
    Algorithm:                 Core
    Schwarz Cutoff:           1E-12
    Mask sparsity (%):      11.4831
    Fitting Condition:        1E-10

   => Auxiliary Basis Set <=

  Basis Set: (AUG-CC-PVTZ AUX)
    Blend: AUG-CC-PVTZ-JKFIT
    Number of shells: 530
    Number of basis functions: 1812
    Number of Cartesian functions: 2253
    Spherical Harmonics?: true
    Max angular momentum: 4

  ==> CPHF Iterations <==

  => Iterations <=

             Iter  Converged  Remaining    Residual
  CGR           1          0          1   1.007E-01
  CGR           2          0          1   4.034E-02
  CGR           3          0          1   2.239E-02
  CGR           4          0          1   8.339E-03
  CGR           5          0          1   3.223E-03
  CGR           6          0          1   1.402E-03
  CGR           7          0          1   3.940E-04
  CGR           8          0          1   1.160E-04
  CGR           9          0          1   4.968E-05
  CGR          10          0          1   2.372E-05
  CGR          11          0          1   1.128E-05
  CGR          12          0          1   4.069E-06
  CGR          13          0          1   1.435E-06
  CGR          14          1          0   4.951E-07

    CGRSolver converged.

	-----------------------------------------------------------
	 ==================> DF-MP2 Energies <==================== 
	-----------------------------------------------------------
	 Reference Energy          =    -531.4499349527320646 [Eh]
	 Singles Energy            =      -0.0000000000000000 [Eh]
	 Same-Spin Energy          =      -0.5916124439400150 [Eh]
	 Opposite-Spin Energy      =      -1.8129686167581123 [Eh]
	 Correlation Energy        =      -2.4045810606981273 [Eh]
	 Total Energy              =    -533.8545160134301568 [Eh]
	-----------------------------------------------------------
	 ================> DF-SCS-MP2 Energies <================== 
	-----------------------------------------------------------
	 SCS Same-Spin Scale       =       0.3333333333333333 [-]
	 SCS Opposite-Spin Scale   =       1.2000000000000000 [-]
	 SCS Same-Spin Energy      =      -0.1972041479800050 [Eh]
	 SCS Opposite-Spin Energy  =      -2.1755623401097348 [Eh]
	 SCS Correlation Energy    =      -2.3727664880897397 [Eh]
	 SCS Total Energy          =    -533.8227014408217883 [Eh]
	-----------------------------------------------------------



Properties will be evaluated at  -0.000000,  -0.000000,  -0.000000 [a0]

Properties computed using the MP2 density matrix

  Nuclear Dipole Moment: [e a0]
     X:    -0.7717      Y:    -0.6939      Z:    -0.4155

  Electronic Dipole Moment: [e a0]
     X:     1.3520      Y:    -0.0211      Z:     0.3889

  Dipole Moment: [e a0]
     X:     0.5803      Y:    -0.7150      Z:    -0.0266     Total:     0.9212

  Dipole Moment: [D]
     X:     1.4749      Y:    -1.8174      Z:    -0.0676     Total:     2.3416


*** tstop() called on c445-114.stampede2.tacc.utexas.edu at Sun Mar 21 03:02:41 2021
Module time:
	user time   =    3845.34 seconds =      64.09 minutes
	system time =      95.76 seconds =       1.60 minutes
	total time  =        385 seconds =       6.42 minutes
Total time:
	user time   =    5016.23 seconds =      83.60 minutes
	system time =     161.34 seconds =       2.69 minutes
	total time  =        446 seconds =       7.43 minutes

    Psi4 stopped on: Sunday, 21 March 2021 03:02AM
    Psi4 wall time for execution: 0:07:27.41

*** Psi4 exiting successfully. Buy a developer a beer!
