
    -----------------------------------------------------------------------
          Psi4: An Open-Source Ab Initio Electronic Structure Package
                               Psi4 1.3.2 release

                         Git: Rev {HEAD} ecbda83 


    R. M. Parrish, L. A. Burns, D. G. A. Smith, A. C. Simmonett,
    A. E. DePrince III, E. G. Hohenstein, U. Bozkaya, A. Yu. Sokolov,
    R. Di Remigio, R. M. Richard, J. F. Gonthier, A. M. James,
    H. R. McAlexander, A. Kumar, M. Saitow, X. Wang, B. P. Pritchard,
    P. Verma, H. F. Schaefer III, K. Patkowski, R. A. King, E. F. Valeev,
    F. A. Evangelista, J. M. Turney, T. D. Crawford, and C. D. Sherrill,
    J. Chem. Theory Comput. 13(7) pp 3185--3197 (2017).
    (doi: 10.1021/acs.jctc.7b00174)


                         Additional Contributions by
    P. Kraus, H. Kruse, M. H. Lechner, M. C. Schieber, R. A. Shaw,
    A. Alenaizan, R. Galvelis, Z. L. Glick, S. Lehtola, and J. P. Misiewicz

    -----------------------------------------------------------------------


    Psi4 started on: Tuesday, 02 February 2021 03:50AM

    Process ID: 56353
    Host:       node142.bme.utexas.edu
    PSIDATADIR: /home/xy3866/psi4conda/share/psi4
    Memory:     500.0 MiB
    Threads:    8
    
  ==> Input File <==

--------------------------------------------------------------------------
#psi4
#
memory 32 gb

molecule  {
0 1
  N        0.0358730    -0.9798690     0.3249120
  N        1.3785830     0.9084480    -0.0806070
  C       -1.2345860    -0.4058730     0.1373700
  C        1.2738787    -0.6118497     0.1504990
  C       -2.2834660    -1.2695640    -0.2193620
  C       -1.5135820     0.9493270     0.3763290
  C        2.4196470    -1.2564020     0.1639730
  C       -3.5834040    -0.7896780    -0.3581100
  C       -2.8175520     1.4190740     0.2143410
  C       -3.8597110     0.5618000    -0.1426300
  C        3.6734950    -0.6966520    -0.0183070
  C        3.7809840     0.6818220    -0.2348670
  C        2.6094310     1.4280530    -0.2543460
  H        0.0343890    -1.9933920     0.2907710
  H       -2.0721120    -2.3220440    -0.4067350
  H       -0.7127900     1.6203970     0.6554980
  H        2.3062980    -2.3249110     0.3351780
  H       -4.3793760    -1.4759950    -0.6376530
  H       -3.0201620     2.4727340     0.3929930
  H       -4.8713210     0.9418730    -0.2585160
  H        4.5591860    -1.3270150     0.0072260
  H        4.7445120     1.1601010    -0.3803610
  H        2.6378470     2.5042230    -0.4179490
units angstrom
no_reorient  #important for SAPT in psi4, default
symmetry c1  #important for SAPT in psi4, default
}

set PROPERTIES_ORIGIN ["COM"]
properties('MP2/aug-cc-pvtz', properties = ['dipole'])
--------------------------------------------------------------------------

  Memory set to  29.802 GiB by Python driver.
    SCF Algorithm Type (re)set to DF.

*** tstart() called on node142.bme.utexas.edu
*** at Tue Feb  2 03:50:27 2021

   => Loading Basis Set <=

    Name: AUG-CC-PVTZ
    Role: ORBITAL
    Keyword: BASIS
    atoms 1-2   entry N          line   281 file /home/xy3866/psi4conda/share/psi4/basis/aug-cc-pvtz.gbs 
    atoms 3-13  entry C          line   235 file /home/xy3866/psi4conda/share/psi4/basis/aug-cc-pvtz.gbs 
    atoms 14-23 entry H          line    36 file /home/xy3866/psi4conda/share/psi4/basis/aug-cc-pvtz.gbs 


         ---------------------------------------------------------
                                   SCF
               by Justin Turney, Rob Parrish, Andy Simmonett
                          and Daniel G. A. Smith
                              RHF Reference
                        8 Threads,  30517 MiB Core
         ---------------------------------------------------------

  ==> Geometry <==

    Molecular point group: c1
    Full point group: C1

    Geometry (in Angstrom), charge = 0, multiplicity = 1:

       Center              X                  Y                   Z               Mass       
    ------------   -----------------  -----------------  -----------------  -----------------
         N            0.032293797201    -0.970289773361     0.320344443977    14.003074004430
         N            1.375003797201     0.918027226639    -0.085174556023    14.003074004430
         C           -1.238165202799    -0.396293773361     0.132802443977    12.000000000000
         C            1.270299497201    -0.602270473361     0.145931443977    12.000000000000
         C           -2.287045202799    -1.259984773361    -0.223929556023    12.000000000000
         C           -1.517161202799     0.958906226639     0.371761443977    12.000000000000
         C            2.416067797201    -1.246822773361     0.159405443977    12.000000000000
         C           -3.586983202799    -0.780098773361    -0.362677556023    12.000000000000
         C           -2.821131202799     1.428653226639     0.209773443977    12.000000000000
         C           -3.863290202799     0.571379226639    -0.147197556023    12.000000000000
         C            3.669915797201    -0.687072773361    -0.022874556023    12.000000000000
         C            3.777404797201     0.691401226639    -0.239434556023    12.000000000000
         C            2.605851797201     1.437632226639    -0.258913556023    12.000000000000
         H            0.030809797201    -1.983812773361     0.286203443977     1.007825032230
         H           -2.075691202799    -2.312464773361    -0.411302556023     1.007825032230
         H           -0.716369202799     1.629976226639     0.650930443977     1.007825032230
         H            2.302718797201    -2.315331773361     0.330610443977     1.007825032230
         H           -4.382955202799    -1.466415773361    -0.642220556023     1.007825032230
         H           -3.023741202799     2.482313226639     0.388425443977     1.007825032230
         H           -4.874900202799     0.951452226639    -0.263083556023     1.007825032230
         H            4.555606797201    -1.317435773361     0.002658443977     1.007825032230
         H            4.740932797201     1.169680226639    -0.384928556023     1.007825032230
         H            2.634267797201     2.513802226639    -0.422516556023     1.007825032230

  Running in c1 symmetry.

  Rotational constants: A =      0.08502  B =      0.01415  C =      0.01231 [cm^-1]
  Rotational constants: A =   2548.69206  B =    424.15425  C =    369.04552 [MHz]
  Nuclear repulsion =  697.670387991839107

  Charge       = 0
  Multiplicity = 1
  Electrons    = 90
  Nalpha       = 45
  Nbeta        = 45

  ==> Algorithm <==

  SCF Algorithm Type is DF.
  DIIS enabled.
  MOM disabled.
  Fractional occupation disabled.
  Guess Type is SAD.
  Energy threshold   = 1.00e-10
  Density threshold  = 1.00e-10
  Integral threshold = 0.00e+00

  ==> Primary Basis <==

  Basis Set: AUG-CC-PVTZ
    Blend: AUG-CC-PVTZ
    Number of shells: 272
    Number of basis function: 828
    Number of Cartesian functions: 965
    Spherical Harmonics?: true
    Max angular momentum: 3

   => Loading Basis Set <=

    Name: (AUG-CC-PVTZ AUX)
    Role: JKFIT
    Keyword: DF_BASIS_SCF
    atoms 1-2   entry N          line   224 file /home/xy3866/psi4conda/share/psi4/basis/aug-cc-pvtz-jkfit.gbs 
    atoms 3-13  entry C          line   162 file /home/xy3866/psi4conda/share/psi4/basis/aug-cc-pvtz-jkfit.gbs 
    atoms 14-23 entry H          line    70 file /home/xy3866/psi4conda/share/psi4/basis/aug-cc-pvtz-jkfit.gbs 

  ==> Pre-Iterations <==

   -------------------------------------------------------
    Irrep   Nso     Nmo     Nalpha   Nbeta   Ndocc  Nsocc
   -------------------------------------------------------
     A        828     828       0       0       0       0
   -------------------------------------------------------
    Total     828     828      45      45      45       0
   -------------------------------------------------------

  ==> Integral Setup <==

  DFHelper Memory: AOs need 8.394 GiB; user supplied 22.352 GiB. Using in-core AOs.

  ==> MemDFJK: Density-Fitted J/K Matrices <==

    J tasked:                   Yes
    K tasked:                   Yes
    wK tasked:                   No
    OpenMP threads:               8
    Memory [MiB]:             22888
    Algorithm:                 Disk
    Schwarz Cutoff:           1E-12
    Mask sparsity (%):      11.5076
    Fitting Condition:        1E-10

   => Auxiliary Basis Set <=

  Basis Set: (AUG-CC-PVTZ AUX)
    Blend: AUG-CC-PVTZ-JKFIT
    Number of shells: 530
    Number of basis function: 1812
    Number of Cartesian functions: 2253
    Spherical Harmonics?: true
    Max angular momentum: 4

  Minimum eigenvalue in the overlap matrix is 5.8585434345E-07.
  Using Symmetric Orthogonalization.

  SCF Guess: Superposition of Atomic Densities via on-the-fly atomic UHF.

  ==> Iterations <==

                           Total Energy        Delta E     RMS |[F,P]|

   @DF-RHF iter SAD:  -530.87140007904372   -5.30871e+02   0.00000e+00 
   @DF-RHF iter   1:  -531.04990727994459   -1.78507e-01   9.21402e-04 DIIS
   @DF-RHF iter   2:  -531.33328147485645   -2.83374e-01   4.34946e-04 DIIS
   @DF-RHF iter   3:  -531.39544186320506   -6.21604e-02   9.51936e-05 DIIS
   @DF-RHF iter   4:  -531.39948070355592   -4.03884e-03   4.32982e-05 DIIS
   @DF-RHF iter   5:  -531.40016158691401   -6.80883e-04   7.72395e-06 DIIS
   @DF-RHF iter   6:  -531.40021326700776   -5.16801e-05   3.27151e-06 DIIS
   @DF-RHF iter   7:  -531.40022628620795   -1.30192e-05   1.53183e-06 DIIS
   @DF-RHF iter   8:  -531.40022991064325   -3.62444e-06   6.06525e-07 DIIS
   @DF-RHF iter   9:  -531.40023068233620   -7.71693e-07   2.07876e-07 DIIS
   @DF-RHF iter  10:  -531.40023075701936   -7.46832e-08   9.74058e-08 DIIS
   @DF-RHF iter  11:  -531.40023077121180   -1.41924e-08   2.60558e-08 DIIS
   @DF-RHF iter  12:  -531.40023077224441   -1.03262e-09   1.30672e-08 DIIS
   @DF-RHF iter  13:  -531.40023077234912   -1.04706e-10   4.88184e-09 DIIS
   @DF-RHF iter  14:  -531.40023077238129   -3.21734e-11   2.82941e-09 DIIS
   @DF-RHF iter  15:  -531.40023077239493   -1.36424e-11   1.48195e-09 DIIS
   @DF-RHF iter  16:  -531.40023077239994   -5.00222e-12   5.57345e-10 DIIS
   @DF-RHF iter  17:  -531.40023077240221   -2.27374e-12   2.51033e-10 DIIS
   @DF-RHF iter  18:  -531.40023077240426   -2.04636e-12   6.90280e-11 DIIS
  Energy and wave function converged.


  ==> Post-Iterations <==

    Orbital Energies [Eh]
    ---------------------

    Doubly Occupied:                                                      

       1A    -15.602581     2A    -15.557284     3A    -11.324031  
       4A    -11.292177     5A    -11.273805     6A    -11.263843  
       7A    -11.239737     8A    -11.237748     9A    -11.235563  
      10A    -11.229328    11A    -11.226273    12A    -11.223782  
      13A    -11.222689    14A     -1.309286    15A     -1.198006  
      16A     -1.143959    17A     -1.079629    18A     -1.041063  
      19A     -1.014451    20A     -0.988564    21A     -0.876383  
      22A     -0.857556    23A     -0.826832    24A     -0.803726  
      25A     -0.737521    26A     -0.720128    27A     -0.684816  
      28A     -0.663205    29A     -0.630628    30A     -0.625896  
      31A     -0.610264    32A     -0.591853    33A     -0.587418  
      34A     -0.583797    35A     -0.568390    36A     -0.521737  
      37A     -0.512280    38A     -0.509654    39A     -0.491374  
      40A     -0.468163    41A     -0.400912    42A     -0.379171  
      43A     -0.344065    44A     -0.335687    45A     -0.281207  

    Virtual:                                                              

      46A      0.023350    47A      0.029192    48A      0.032154  
      49A      0.039506    50A      0.040115    51A      0.051869  
      52A      0.054300    53A      0.055674    54A      0.066192  
      55A      0.074030    56A      0.080512    57A      0.083297  
      58A      0.091364    59A      0.094570    60A      0.096718  
      61A      0.103951    62A      0.104317    63A      0.108405  
      64A      0.111985    65A      0.114870    66A      0.116110  
      67A      0.119324    68A      0.120544    69A      0.121560  
      70A      0.124718    71A      0.129359    72A      0.131722  
      73A      0.134093    74A      0.137901    75A      0.141799  
      76A      0.144220    77A      0.145955    78A      0.149583  
      79A      0.152732    80A      0.155135    81A      0.155994  
      82A      0.164120    83A      0.167011    84A      0.173935  
      85A      0.177314    86A      0.180523    87A      0.186038  
      88A      0.187936    89A      0.189782    90A      0.205563  
      91A      0.210334    92A      0.216079    93A      0.218006  
      94A      0.227390    95A      0.232412    96A      0.235510  
      97A      0.238420    98A      0.249791    99A      0.250999  
     100A      0.256081   101A      0.260995   102A      0.264900  
     103A      0.270186   104A      0.272137   105A      0.276313  
     106A      0.278706   107A      0.285911   108A      0.288802  
     109A      0.295867   110A      0.299401   111A      0.301782  
     112A      0.302018   113A      0.304065   114A      0.310064  
     115A      0.313641   116A      0.319426   117A      0.322525  
     118A      0.324836   119A      0.327251   120A      0.328796  
     121A      0.332332   122A      0.333137   123A      0.338045  
     124A      0.342247   125A      0.343499   126A      0.354476  
     127A      0.356322   128A      0.362732   129A      0.365670  
     130A      0.367417   131A      0.369633   132A      0.375658  
     133A      0.384913   134A      0.388524   135A      0.396295  
     136A      0.403218   137A      0.405629   138A      0.413294  
     139A      0.419099   140A      0.422189   141A      0.426302  
     142A      0.430856   143A      0.435298   144A      0.438549  
     145A      0.441302   146A      0.442396   147A      0.448825  
     148A      0.451416   149A      0.455164   150A      0.458458  
     151A      0.464084   152A      0.467157   153A      0.469862  
     154A      0.474271   155A      0.475716   156A      0.479086  
     157A      0.482363   158A      0.484647   159A      0.491185  
     160A      0.493552   161A      0.496783   162A      0.500358  
     163A      0.501655   164A      0.504892   165A      0.509314  
     166A      0.511370   167A      0.517074   168A      0.519676  
     169A      0.521101   170A      0.528788   171A      0.529141  
     172A      0.534178   173A      0.535745   174A      0.538703  
     175A      0.542932   176A      0.545043   177A      0.552203  
     178A      0.555937   179A      0.560423   180A      0.561465  
     181A      0.565139   182A      0.569665   183A      0.582944  
     184A      0.586405   185A      0.595470   186A      0.597689  
     187A      0.603857   188A      0.611638   189A      0.618793  
     190A      0.628436   191A      0.632154   192A      0.633677  
     193A      0.639053   194A      0.643944   195A      0.648084  
     196A      0.651288   197A      0.658995   198A      0.663365  
     199A      0.670042   200A      0.674916   201A      0.679818  
     202A      0.684932   203A      0.691052   204A      0.693565  
     205A      0.702239   206A      0.707359   207A      0.708876  
     208A      0.714226   209A      0.720735   210A      0.725360  
     211A      0.726082   212A      0.733725   213A      0.738115  
     214A      0.745883   215A      0.747197   216A      0.752198  
     217A      0.763731   218A      0.766453   219A      0.770385  
     220A      0.773998   221A      0.784093   222A      0.788815  
     223A      0.793985   224A      0.798291   225A      0.808205  
     226A      0.811116   227A      0.822832   228A      0.824454  
     229A      0.832388   230A      0.834876   231A      0.841685  
     232A      0.845105   233A      0.848657   234A      0.855124  
     235A      0.860198   236A      0.865717   237A      0.869278  
     238A      0.873463   239A      0.878257   240A      0.885344  
     241A      0.886044   242A      0.890386   243A      0.891983  
     244A      0.896360   245A      0.899915   246A      0.902479  
     247A      0.912926   248A      0.916167   249A      0.919917  
     250A      0.927922   251A      0.929460   252A      0.932591  
     253A      0.936184   254A      0.941049   255A      0.946594  
     256A      0.957149   257A      0.965602   258A      0.966086  
     259A      0.971700   260A      0.977392   261A      0.979751  
     262A      0.981755   263A      0.987164   264A      0.999548  
     265A      1.001796   266A      1.004632   267A      1.011437  
     268A      1.019194   269A      1.026673   270A      1.031709  
     271A      1.032021   272A      1.037413   273A      1.042283  
     274A      1.048886   275A      1.054186   276A      1.057421  
     277A      1.060745   278A      1.066460   279A      1.069172  
     280A      1.072477   281A      1.079718   282A      1.085546  
     283A      1.088901   284A      1.092526   285A      1.094601  
     286A      1.098481   287A      1.098748   288A      1.103652  
     289A      1.106473   290A      1.116447   291A      1.118178  
     292A      1.121879   293A      1.123897   294A      1.132127  
     295A      1.135072   296A      1.138802   297A      1.141612  
     298A      1.146440   299A      1.154189   300A      1.160320  
     301A      1.166323   302A      1.172992   303A      1.178199  
     304A      1.182737   305A      1.185204   306A      1.189586  
     307A      1.193108   308A      1.195942   309A      1.199192  
     310A      1.208315   311A      1.210089   312A      1.215421  
     313A      1.218150   314A      1.220332   315A      1.225575  
     316A      1.228749   317A      1.232507   318A      1.246010  
     319A      1.247104   320A      1.250718   321A      1.253341  
     322A      1.255805   323A      1.267446   324A      1.274173  
     325A      1.279446   326A      1.289177   327A      1.294276  
     328A      1.295631   329A      1.311227   330A      1.312855  
     331A      1.316430   332A      1.328390   333A      1.333793  
     334A      1.351704   335A      1.354680   336A      1.358582  
     337A      1.362815   338A      1.370458   339A      1.378188  
     340A      1.390603   341A      1.396357   342A      1.396957  
     343A      1.407115   344A      1.413876   345A      1.414705  
     346A      1.421331   347A      1.429006   348A      1.439049  
     349A      1.440386   350A      1.441823   351A      1.450868  
     352A      1.454368   353A      1.465983   354A      1.472795  
     355A      1.484490   356A      1.490518   357A      1.495225  
     358A      1.505030   359A      1.517242   360A      1.521223  
     361A      1.525179   362A      1.532360   363A      1.534862  
     364A      1.538237   365A      1.543933   366A      1.554206  
     367A      1.567569   368A      1.568710   369A      1.576052  
     370A      1.582814   371A      1.584243   372A      1.595432  
     373A      1.608689   374A      1.613601   375A      1.621754  
     376A      1.626723   377A      1.628976   378A      1.647773  
     379A      1.657805   380A      1.665668   381A      1.671440  
     382A      1.684960   383A      1.689344   384A      1.705129  
     385A      1.712109   386A      1.722700   387A      1.725324  
     388A      1.733569   389A      1.740788   390A      1.747284  
     391A      1.757876   392A      1.762797   393A      1.772992  
     394A      1.780936   395A      1.784917   396A      1.787079  
     397A      1.794400   398A      1.806739   399A      1.812915  
     400A      1.823503   401A      1.830783   402A      1.837398  
     403A      1.845731   404A      1.849209   405A      1.852594  
     406A      1.857746   407A      1.866430   408A      1.870893  
     409A      1.877161   410A      1.887958   411A      1.901130  
     412A      1.907131   413A      1.908408   414A      1.913340  
     415A      1.928913   416A      1.930872   417A      1.943747  
     418A      1.953054   419A      1.955471   420A      1.959139  
     421A      1.980875   422A      1.989976   423A      1.990752  
     424A      2.005575   425A      2.012202   426A      2.017939  
     427A      2.020202   428A      2.029002   429A      2.030492  
     430A      2.034395   431A      2.042509   432A      2.047592  
     433A      2.049161   434A      2.055640   435A      2.068836  
     436A      2.073278   437A      2.077351   438A      2.080907  
     439A      2.085291   440A      2.098744   441A      2.101820  
     442A      2.107029   443A      2.113313   444A      2.116726  
     445A      2.130762   446A      2.145033   447A      2.155142  
     448A      2.158640   449A      2.171443   450A      2.182478  
     451A      2.187837   452A      2.194343   453A      2.204657  
     454A      2.216942   455A      2.220295   456A      2.227657  
     457A      2.238244   458A      2.251514   459A      2.256197  
     460A      2.267996   461A      2.270373   462A      2.280434  
     463A      2.286922   464A      2.293713   465A      2.307335  
     466A      2.316100   467A      2.336697   468A      2.349160  
     469A      2.355904   470A      2.369311   471A      2.377148  
     472A      2.385737   473A      2.389550   474A      2.401255  
     475A      2.413949   476A      2.418139   477A      2.420407  
     478A      2.434819   479A      2.442273   480A      2.452770  
     481A      2.455969   482A      2.470509   483A      2.481491  
     484A      2.491478   485A      2.503021   486A      2.509921  
     487A      2.528230   488A      2.536714   489A      2.556133  
     490A      2.574946   491A      2.587673   492A      2.597615  
     493A      2.604261   494A      2.616910   495A      2.633869  
     496A      2.647706   497A      2.657422   498A      2.659419  
     499A      2.686284   500A      2.695563   501A      2.705011  
     502A      2.716776   503A      2.740311   504A      2.762446  
     505A      2.774848   506A      2.782413   507A      2.790742  
     508A      2.805161   509A      2.819925   510A      2.824068  
     511A      2.855870   512A      2.866362   513A      2.882384  
     514A      2.889515   515A      2.912993   516A      2.938088  
     517A      2.950791   518A      2.985289   519A      3.029528  
     520A      3.037072   521A      3.064185   522A      3.068493  
     523A      3.121370   524A      3.127608   525A      3.142353  
     526A      3.177251   527A      3.201984   528A      3.214691  
     529A      3.219078   530A      3.223755   531A      3.228459  
     532A      3.243264   533A      3.257193   534A      3.289281  
     535A      3.297499   536A      3.304999   537A      3.318375  
     538A      3.326686   539A      3.337661   540A      3.360387  
     541A      3.370412   542A      3.374077   543A      3.385861  
     544A      3.390841   545A      3.395730   546A      3.401558  
     547A      3.418853   548A      3.430795   549A      3.435549  
     550A      3.444040   551A      3.456483   552A      3.461960  
     553A      3.469483   554A      3.478927   555A      3.483676  
     556A      3.500712   557A      3.507147   558A      3.522817  
     559A      3.536901   560A      3.541842   561A      3.550023  
     562A      3.558791   563A      3.561483   564A      3.567066  
     565A      3.572417   566A      3.577859   567A      3.583287  
     568A      3.584238   569A      3.600967   570A      3.612460  
     571A      3.616766   572A      3.637604   573A      3.641019  
     574A      3.645496   575A      3.653732   576A      3.668220  
     577A      3.671388   578A      3.674448   579A      3.687616  
     580A      3.699277   581A      3.710668   582A      3.719846  
     583A      3.729277   584A      3.738521   585A      3.756061  
     586A      3.762416   587A      3.776158   588A      3.779280  
     589A      3.793763   590A      3.813484   591A      3.825308  
     592A      3.827823   593A      3.848324   594A      3.850079  
     595A      3.854649   596A      3.862975   597A      3.873879  
     598A      3.883526   599A      3.884160   600A      3.895306  
     601A      3.899393   602A      3.903268   603A      3.912558  
     604A      3.922709   605A      3.932594   606A      3.943352  
     607A      3.953759   608A      3.964420   609A      3.969970  
     610A      3.971775   611A      3.980925   612A      3.987269  
     613A      3.989198   614A      3.994936   615A      3.999078  
     616A      4.024981   617A      4.028956   618A      4.034037  
     619A      4.044218   620A      4.055559   621A      4.064335  
     622A      4.070045   623A      4.075085   624A      4.087905  
     625A      4.097064   626A      4.112623   627A      4.115549  
     628A      4.122278   629A      4.138622   630A      4.142536  
     631A      4.151565   632A      4.163388   633A      4.173238  
     634A      4.186128   635A      4.186801   636A      4.191058  
     637A      4.215287   638A      4.223205   639A      4.230573  
     640A      4.242818   641A      4.250522   642A      4.256966  
     643A      4.273647   644A      4.281114   645A      4.286691  
     646A      4.290224   647A      4.300481   648A      4.306926  
     649A      4.314341   650A      4.320765   651A      4.335159  
     652A      4.347953   653A      4.363963   654A      4.373651  
     655A      4.378307   656A      4.395536   657A      4.398163  
     658A      4.404829   659A      4.414617   660A      4.422873  
     661A      4.424982   662A      4.430809   663A      4.439415  
     664A      4.448020   665A      4.454860   666A      4.459321  
     667A      4.471775   668A      4.478324   669A      4.489609  
     670A      4.498860   671A      4.506948   672A      4.516061  
     673A      4.537461   674A      4.547538   675A      4.553627  
     676A      4.563964   677A      4.588966   678A      4.593984  
     679A      4.621535   680A      4.633633   681A      4.643380  
     682A      4.654976   683A      4.660732   684A      4.695938  
     685A      4.698406   686A      4.725889   687A      4.741083  
     688A      4.744023   689A      4.759205   690A      4.772885  
     691A      4.781684   692A      4.799564   693A      4.806077  
     694A      4.831848   695A      4.833953   696A      4.856429  
     697A      4.869882   698A      4.885521   699A      4.902910  
     700A      4.914859   701A      4.925438   702A      4.931921  
     703A      4.939976   704A      4.962186   705A      4.972828  
     706A      4.981079   707A      4.984279   708A      4.988487  
     709A      5.024139   710A      5.042031   711A      5.054415  
     712A      5.067706   713A      5.074005   714A      5.085650  
     715A      5.092847   716A      5.100923   717A      5.102320  
     718A      5.112229   719A      5.121395   720A      5.130728  
     721A      5.136677   722A      5.139369   723A      5.153139  
     724A      5.159014   725A      5.173034   726A      5.173732  
     727A      5.180582   728A      5.189524   729A      5.205545  
     730A      5.215340   731A      5.226296   732A      5.244924  
     733A      5.258617   734A      5.287686   735A      5.298526  
     736A      5.307569   737A      5.319735   738A      5.338128  
     739A      5.349223   740A      5.351690   741A      5.357525  
     742A      5.367193   743A      5.381752   744A      5.390875  
     745A      5.424319   746A      5.434989   747A      5.452353  
     748A      5.466333   749A      5.490323   750A      5.514892  
     751A      5.531960   752A      5.553745   753A      5.569493  
     754A      5.583250   755A      5.604083   756A      5.613882  
     757A      5.637215   758A      5.657684   759A      5.694486  
     760A      5.703447   761A      5.711668   762A      5.742176  
     763A      5.750196   764A      5.771979   765A      5.775384  
     766A      5.794211   767A      5.808149   768A      5.825741  
     769A      5.838525   770A      5.851951   771A      5.884209  
     772A      5.891033   773A      5.903690   774A      5.943641  
     775A      5.959327   776A      6.008676   777A      6.048737  
     778A      6.075277   779A      6.100048   780A      6.142670  
     781A      6.180155   782A      6.186765   783A      6.217018  
     784A      6.230991   785A      6.242051   786A      6.254769  
     787A      6.288399   788A      6.301555   789A      6.318798  
     790A      6.358776   791A      6.379012   792A      6.458539  
     793A      6.475859   794A      6.476661   795A      6.539298  
     796A      6.604220   797A      6.610608   798A      6.674749  
     799A      6.715470   800A      6.736986   801A      6.770780  
     802A      6.805480   803A      6.842509   804A      6.885305  
     805A      6.932505   806A      6.970787   807A      7.024568  
     808A      7.059279   809A      7.066418   810A      7.081261  
     811A      7.255267   812A      7.339368   813A      7.492439  
     814A      7.555657   815A      7.796591   816A     15.053593  
     817A     16.156871   818A     16.358776   819A     16.979117  
     820A     17.673263   821A     18.615959   822A     19.331372  
     823A     19.497081   824A     19.584256   825A     19.846997  
     826A     20.017226   827A     20.539239   828A     21.591084  

    Final Occupation by Irrep:
              A 
    DOCC [    45 ]

  @DF-RHF Final Energy:  -531.40023077240426

   => Energetics <=

    Nuclear Repulsion Energy =            697.6703879918391067
    One-Electron Energy =               -2103.5083229817523716
    Two-Electron Energy =                 874.4377042175090082
    Total Energy =                       -531.4002307724042566

Computation Completed

*** tstop() called on node142.bme.utexas.edu at Tue Feb  2 03:53:44 2021
Module time:
	user time   =     889.78 seconds =      14.83 minutes
	system time =     100.28 seconds =       1.67 minutes
	total time  =        197 seconds =       3.28 minutes
Total time:
	user time   =     889.78 seconds =      14.83 minutes
	system time =     100.28 seconds =       1.67 minutes
	total time  =        197 seconds =       3.28 minutes
   => Loading Basis Set <=

    Name: (AUG-CC-PVTZ AUX)
    Role: RIFIT
    Keyword: DF_BASIS_MP2
    atoms 1-2   entry N          line   206 file /home/xy3866/psi4conda/share/psi4/basis/aug-cc-pvtz-ri.gbs 
    atoms 3-13  entry C          line   148 file /home/xy3866/psi4conda/share/psi4/basis/aug-cc-pvtz-ri.gbs 
    atoms 14-23 entry H          line    30 file /home/xy3866/psi4conda/share/psi4/basis/aug-cc-pvtz-ri.gbs 


*** tstart() called on node142.bme.utexas.edu
*** at Tue Feb  2 03:53:44 2021


  //>>>>>>>>>>>>>>>>>>>>>>>>>>>>>>>>>>>//
  //               DFMP2               //
  //<<<<<<<<<<<<<<<<<<<<<<<<<<<<<<<<<<<//

	 --------------------------------------------------------
	                          DF-MP2                         
	      2nd-Order Density-Fitted Moller-Plesset Theory     
	              RMP2 Wavefunction,   8 Threads             
	                                                         
	        Rob Parrish, Justin Turney, Andy Simmonett,      
	           Ed Hohenstein, and C. David Sherrill          
	 --------------------------------------------------------

   => Auxiliary Basis Set <=

  Basis Set: (AUG-CC-PVTZ AUX)
    Blend: AUG-CC-PVTZ-RI
    Number of shells: 504
    Number of basis function: 1838
    Number of Cartesian functions: 2318
    Spherical Harmonics?: true
    Max angular momentum: 4

	 --------------------------------------------------------
	                 NBF =   828, NAUX =  1838
	 --------------------------------------------------------
	   CLASS    FOCC     OCC    AOCC    AVIR     VIR    FVIR
	   PAIRS       0      45      45     783     783       0
	 --------------------------------------------------------

  DFHelper Memory: AOs need 8.394 GiB; user supplied 22.352 GiB. Using in-core AOs.


         ------------------------------------------------------------
                                     CPHF                           
                                  Rob Parrish                       
         ------------------------------------------------------------

  ==> Geometry <==

    Molecular point group: c1
    Full point group: C1

    Geometry (in Angstrom), charge = 0, multiplicity = 1:

       Center              X                  Y                   Z               Mass       
    ------------   -----------------  -----------------  -----------------  -----------------
         N            0.032293797201    -0.970289773361     0.320344443977    14.003074004430
         N            1.375003797201     0.918027226639    -0.085174556023    14.003074004430
         C           -1.238165202799    -0.396293773361     0.132802443977    12.000000000000
         C            1.270299497201    -0.602270473361     0.145931443977    12.000000000000
         C           -2.287045202799    -1.259984773361    -0.223929556023    12.000000000000
         C           -1.517161202799     0.958906226639     0.371761443977    12.000000000000
         C            2.416067797201    -1.246822773361     0.159405443977    12.000000000000
         C           -3.586983202799    -0.780098773361    -0.362677556023    12.000000000000
         C           -2.821131202799     1.428653226639     0.209773443977    12.000000000000
         C           -3.863290202799     0.571379226639    -0.147197556023    12.000000000000
         C            3.669915797201    -0.687072773361    -0.022874556023    12.000000000000
         C            3.777404797201     0.691401226639    -0.239434556023    12.000000000000
         C            2.605851797201     1.437632226639    -0.258913556023    12.000000000000
         H            0.030809797201    -1.983812773361     0.286203443977     1.007825032230
         H           -2.075691202799    -2.312464773361    -0.411302556023     1.007825032230
         H           -0.716369202799     1.629976226639     0.650930443977     1.007825032230
         H            2.302718797201    -2.315331773361     0.330610443977     1.007825032230
         H           -4.382955202799    -1.466415773361    -0.642220556023     1.007825032230
         H           -3.023741202799     2.482313226639     0.388425443977     1.007825032230
         H           -4.874900202799     0.951452226639    -0.263083556023     1.007825032230
         H            4.555606797201    -1.317435773361     0.002658443977     1.007825032230
         H            4.740932797201     1.169680226639    -0.384928556023     1.007825032230
         H            2.634267797201     2.513802226639    -0.422516556023     1.007825032230

  Nuclear repulsion =  697.670387991839107
  Reference energy  = -531.400230772404257

  ==> Basis Set <==

  Basis Set: AUG-CC-PVTZ
    Blend: AUG-CC-PVTZ
    Number of shells: 272
    Number of basis function: 828
    Number of Cartesian functions: 965
    Spherical Harmonics?: true
    Max angular momentum: 3

  ==> CGRSolver (by Rob Parrish) <==

   Number of roots    =         1
   Preconditioning    =    JACOBI
   Convergence cutoff =     1E-06
   Maximum iterations =       100

  ==> CPHFRHamiltonian (by Rob Parrish) <== 

  ==> MemDFJK: Density-Fitted J/K Matrices <==

    J tasked:                   Yes
    K tasked:                   Yes
    wK tasked:                   No
    OpenMP threads:               8
    Memory [MiB]:             22888
    Algorithm:                 Disk
    Schwarz Cutoff:           1E-12
    Mask sparsity (%):      11.5076
    Fitting Condition:        1E-10

   => Auxiliary Basis Set <=

  Basis Set: (AUG-CC-PVTZ AUX)
    Blend: AUG-CC-PVTZ-JKFIT
    Number of shells: 530
    Number of basis function: 1812
    Number of Cartesian functions: 2253
    Spherical Harmonics?: true
    Max angular momentum: 4

  ==> CPHF Iterations <==

  => Iterations <=

             Iter  Converged  Remaining    Residual
  CGR           1          0          1   1.062E-01
  CGR           2          0          1   4.495E-02
  CGR           3          0          1   2.636E-02
  CGR           4          0          1   9.838E-03
  CGR           5          0          1   3.834E-03
  CGR           6          0          1   1.848E-03
  CGR           7          0          1   7.671E-04
  CGR           8          0          1   4.017E-04
  CGR           9          0          1   1.897E-04
  CGR          10          0          1   5.684E-05
  CGR          11          0          1   2.211E-05
  CGR          12          0          1   8.465E-06
  CGR          13          0          1   3.869E-06
  CGR          14          0          1   1.671E-06
  CGR          15          1          0   6.652E-07

    CGRSolver converged.

	-----------------------------------------------------------
	 ==================> DF-MP2 Energies <==================== 
	-----------------------------------------------------------
	 Reference Energy          =    -531.4002307724042566 [Eh]
	 Singles Energy            =      -0.0000000000000000 [Eh]
	 Same-Spin Energy          =      -0.5944400061452204 [Eh]
	 Opposite-Spin Energy      =      -1.8202042984581284 [Eh]
	 Correlation Energy        =      -2.4146443046033488 [Eh]
	 Total Energy              =    -533.8148750770076276 [Eh]
	-----------------------------------------------------------
	 ================> DF-SCS-MP2 Energies <================== 
	-----------------------------------------------------------
	 SCS Same-Spin Scale       =       0.3333333333333333 [-]
	 SCS Opposite-Spin Scale   =       1.2000000000000000 [-]
	 SCS Same-Spin Energy      =      -0.1981466687150735 [Eh]
	 SCS Opposite-Spin Energy  =      -2.1842451581497540 [Eh]
	 SCS Correlation Energy    =      -2.3823918268648274 [Eh]
	 SCS Total Energy          =    -533.7826225992690752 [Eh]
	-----------------------------------------------------------



Properties will be evaluated at  -0.000000,  -0.000000,   0.000000 [a0]

Properties computed using the MP2 density matrix

  Nuclear Dipole Moment: [e a0]
     X:    -0.7628      Y:    -0.6076      Z:    -0.4368

  Electronic Dipole Moment: [e a0]
     X:     0.9597      Y:    -0.1479      Z:     0.4347

  Dipole Moment: [e a0]
     X:     0.1969      Y:    -0.7554      Z:    -0.0021     Total:     0.7807

  Dipole Moment: [D]
     X:     0.5005      Y:    -1.9201      Z:    -0.0054     Total:     1.9843


*** tstop() called on node142.bme.utexas.edu at Tue Feb  2 04:01:56 2021
Module time:
	user time   =    3096.76 seconds =      51.61 minutes
	system time =     108.29 seconds =       1.80 minutes
	total time  =        492 seconds =       8.20 minutes
Total time:
	user time   =    3986.81 seconds =      66.45 minutes
	system time =     208.57 seconds =       3.48 minutes
	total time  =        689 seconds =      11.48 minutes

    Psi4 stopped on: Tuesday, 02 February 2021 04:01AM
    Psi4 wall time for execution: 0:11:29.82

*** Psi4 exiting successfully. Buy a developer a beer!
