opt=Tight                                                               
Freq      RMP2-FC                                                     6-31G(d)            
Number of atoms                            I               17
Info1-9                                    I   N=           9
          26          26        1002           0           0         100
           6           2           1
Charge                                     I                0
Multiplicity                               I                1
Number of electrons                        I               48
Number of alpha electrons                  I               24
Number of beta electrons                   I               24
Number of basis functions                  I              112
Number of independent functions            I              112
Number of point charges in /Mol/           I                0
Number of translation vectors              I                0
Atomic numbers                             I   N=          17
           7           6           6           6           6           6
           1           1           1           1           1           1
           1           1           1           1           1
Nuclear charges                            R   N=          17
  7.00000000E+00  6.00000000E+00  6.00000000E+00  6.00000000E+00  6.00000000E+00
  6.00000000E+00  1.00000000E+00  1.00000000E+00  1.00000000E+00  1.00000000E+00
  1.00000000E+00  1.00000000E+00  1.00000000E+00  1.00000000E+00  1.00000000E+00
  1.00000000E+00  1.00000000E+00
Current cartesian coordinates              R   N=          51
 -2.74260678E+00 -1.91618230E-03 -9.40259694E-01  3.62414134E+00 -5.33076624E-01
  5.67445073E-01  1.37974007E+00 -1.99187717E+00 -5.49910305E-01  3.61598340E+00
  2.25231922E+00 -1.79658153E-01 -1.08845958E+00 -1.06272906E+00  4.73242226E-01
 -5.05215258E+00  8.50446680E-01  2.92811175E-01  3.59728645E+00 -7.09219887E-01
  2.63372265E+00  5.38249372E+00 -1.42293732E+00 -6.96023929E-02  1.33964575E+00
 -1.79443291E+00 -2.60887464E+00  1.57898146E+00 -4.00928643E+00 -1.05083891E-01
  3.68443684E+00  2.45514920E+00 -2.23627356E+00  1.90367798E+00  3.20091261E+00
  4.81116715E-01  5.24681705E+00  3.24134897E+00  6.17364079E-01 -1.38941925E+00
 -1.30672672E+00  2.52509363E+00 -5.26797820E+00  2.88071552E+00 -2.87030502E-02
 -5.08785707E+00  4.80587591E-01  2.33928820E+00 -6.66535698E+00 -9.31956237E-02
 -5.89800534E-01
Force Field                                I                0
Int Atom Types                             I   N=          17
           0           0           0           0           0           0
           0           0           0           0           0           0
           0           0           0           0           0
MM charges                                 R   N=          17
  0.00000000E+00  0.00000000E+00  0.00000000E+00  0.00000000E+00  0.00000000E+00
  0.00000000E+00  0.00000000E+00  0.00000000E+00  0.00000000E+00  0.00000000E+00
  0.00000000E+00  0.00000000E+00  0.00000000E+00  0.00000000E+00  0.00000000E+00
  0.00000000E+00  0.00000000E+00
Integer atomic weights                     I   N=          17
          14          12          12          12          12          12
           1           1           1           1           1           1
           1           1           1           1           1
Real atomic weights                        R   N=          17
  1.40030740E+01  1.20000000E+01  1.20000000E+01  1.20000000E+01  1.20000000E+01
  1.20000000E+01  1.00782504E+00  1.00782504E+00  1.00782504E+00  1.00782504E+00
  1.00782504E+00  1.00782504E+00  1.00782504E+00  1.00782504E+00  1.00782504E+00
  1.00782504E+00  1.00782504E+00
Atom fragment info                         I   N=          17
           0           0           0           0           0           0
           0           0           0           0           0           0
           0           0           0           0           0
Atom residue num                           I   N=          17
           0           0           0           0           0           0
           0           0           0           0           0           0
           0           0           0           0           0
Nuclear spins                              I   N=          17
           2           0           0           0           0           0
           1           1           1           1           1           1
           1           1           1           1           1
Nuclear ZEff                               R   N=          17
 -4.55000000E+00 -3.60000000E+00 -3.60000000E+00 -3.60000000E+00 -3.60000000E+00
 -3.60000000E+00 -1.00000000E+00 -1.00000000E+00 -1.00000000E+00 -1.00000000E+00
 -1.00000000E+00 -1.00000000E+00 -1.00000000E+00 -1.00000000E+00 -1.00000000E+00
 -1.00000000E+00 -1.00000000E+00
Nuclear QMom                               R   N=          17
  2.04400000E+00  0.00000000E+00  0.00000000E+00  0.00000000E+00  0.00000000E+00
  0.00000000E+00  0.00000000E+00  0.00000000E+00  0.00000000E+00  0.00000000E+00
  0.00000000E+00  0.00000000E+00  0.00000000E+00  0.00000000E+00  0.00000000E+00
  0.00000000E+00  0.00000000E+00
Nuclear GFac                               R   N=          17
  4.03761000E-01  0.00000000E+00  0.00000000E+00  0.00000000E+00  0.00000000E+00
  0.00000000E+00  2.79284600E+00  2.79284600E+00  2.79284600E+00  2.79284600E+00
  2.79284600E+00  2.79284600E+00  2.79284600E+00  2.79284600E+00  2.79284600E+00
  2.79284600E+00  2.79284600E+00
MicOpt                                     I   N=          17
          -1          -1          -1          -1          -1          -1
          -1          -1          -1          -1          -1          -1
          -1          -1          -1          -1          -1
Number of contracted shells                I               46
Number of primitive shells                 I              110
Pure/Cartesian d shells                    I                1
Pure/Cartesian f shells                    I                0
Highest angular momentum                   I                2
Largest degree of contraction              I                6
Shell types                                I   N=          46
           0          -1          -1           2           0          -1
          -1           2           0          -1          -1           2
           0          -1          -1           2           0          -1
          -1           2           0          -1          -1           2
           0           0           0           0           0           0
           0           0           0           0           0           0
           0           0           0           0           0           0
           0           0           0           0
Number of primitives per shell             I   N=          46
           6           3           1           1           6           3
           1           1           6           3           1           1
           6           3           1           1           6           3
           1           1           6           3           1           1
           3           1           3           1           3           1
           3           1           3           1           3           1
           3           1           3           1           3           1
           3           1           3           1
Shell to atom map                          I   N=          46
           1           1           1           1           2           2
           2           2           3           3           3           3
           4           4           4           4           5           5
           5           5           6           6           6           6
           7           7           8           8           9           9
          10          10          11          11          12          12
          13          13          14          14          15          15
          16          16          17          17
Primitive exponents                        R   N=         110
  4.17351146E+03  6.27457911E+02  1.42902093E+02  4.02343293E+01  1.28202129E+01
  4.39043701E+00  1.16263619E+01  2.71627981E+00  7.72218397E-01  2.12031498E-01
  8.00000000E-01  3.04752488E+03  4.57369518E+02  1.03948685E+02  2.92101553E+01
  9.28666296E+00  3.16392696E+00  7.86827235E+00  1.88128854E+00  5.44249258E-01
  1.68714478E-01  8.00000000E-01  3.04752488E+03  4.57369518E+02  1.03948685E+02
  2.92101553E+01  9.28666296E+00  3.16392696E+00  7.86827235E+00  1.88128854E+00
  5.44249258E-01  1.68714478E-01  8.00000000E-01  3.04752488E+03  4.57369518E+02
  1.03948685E+02  2.92101553E+01  9.28666296E+00  3.16392696E+00  7.86827235E+00
  1.88128854E+00  5.44249258E-01  1.68714478E-01  8.00000000E-01  3.04752488E+03
  4.57369518E+02  1.03948685E+02  2.92101553E+01  9.28666296E+00  3.16392696E+00
  7.86827235E+00  1.88128854E+00  5.44249258E-01  1.68714478E-01  8.00000000E-01
  3.04752488E+03  4.57369518E+02  1.03948685E+02  2.92101553E+01  9.28666296E+00
  3.16392696E+00  7.86827235E+00  1.88128854E+00  5.44249258E-01  1.68714478E-01
  8.00000000E-01  1.87311370E+01  2.82539436E+00  6.40121692E-01  1.61277759E-01
  1.87311370E+01  2.82539436E+00  6.40121692E-01  1.61277759E-01  1.87311370E+01
  2.82539436E+00  6.40121692E-01  1.61277759E-01  1.87311370E+01  2.82539436E+00
  6.40121692E-01  1.61277759E-01  1.87311370E+01  2.82539436E+00  6.40121692E-01
  1.61277759E-01  1.87311370E+01  2.82539436E+00  6.40121692E-01  1.61277759E-01
  1.87311370E+01  2.82539436E+00  6.40121692E-01  1.61277759E-01  1.87311370E+01
  2.82539436E+00  6.40121692E-01  1.61277759E-01  1.87311370E+01  2.82539436E+00
  6.40121692E-01  1.61277759E-01  1.87311370E+01  2.82539436E+00  6.40121692E-01
  1.61277759E-01  1.87311370E+01  2.82539436E+00  6.40121692E-01  1.61277759E-01
Contraction coefficients                   R   N=         110
  1.83477216E-03  1.39946270E-02  6.85865518E-02  2.32240873E-01  4.69069948E-01
  3.60455199E-01 -1.14961182E-01 -1.69117479E-01  1.14585195E+00  1.00000000E+00
  1.00000000E+00  1.83473713E-03  1.40373228E-02  6.88426223E-02  2.32184443E-01
  4.67941348E-01  3.62311985E-01 -1.19332420E-01 -1.60854152E-01  1.14345644E+00
  1.00000000E+00  1.00000000E+00  1.83473713E-03  1.40373228E-02  6.88426223E-02
  2.32184443E-01  4.67941348E-01  3.62311985E-01 -1.19332420E-01 -1.60854152E-01
  1.14345644E+00  1.00000000E+00  1.00000000E+00  1.83473713E-03  1.40373228E-02
  6.88426223E-02  2.32184443E-01  4.67941348E-01  3.62311985E-01 -1.19332420E-01
 -1.60854152E-01  1.14345644E+00  1.00000000E+00  1.00000000E+00  1.83473713E-03
  1.40373228E-02  6.88426223E-02  2.32184443E-01  4.67941348E-01  3.62311985E-01
 -1.19332420E-01 -1.60854152E-01  1.14345644E+00  1.00000000E+00  1.00000000E+00
  1.83473713E-03  1.40373228E-02  6.88426223E-02  2.32184443E-01  4.67941348E-01
  3.62311985E-01 -1.19332420E-01 -1.60854152E-01  1.14345644E+00  1.00000000E+00
  1.00000000E+00  3.34946043E-02  2.34726953E-01  8.13757326E-01  1.00000000E+00
  3.34946043E-02  2.34726953E-01  8.13757326E-01  1.00000000E+00  3.34946043E-02
  2.34726953E-01  8.13757326E-01  1.00000000E+00  3.34946043E-02  2.34726953E-01
  8.13757326E-01  1.00000000E+00  3.34946043E-02  2.34726953E-01  8.13757326E-01
  1.00000000E+00  3.34946043E-02  2.34726953E-01  8.13757326E-01  1.00000000E+00
  3.34946043E-02  2.34726953E-01  8.13757326E-01  1.00000000E+00  3.34946043E-02
  2.34726953E-01  8.13757326E-01  1.00000000E+00  3.34946043E-02  2.34726953E-01
  8.13757326E-01  1.00000000E+00  3.34946043E-02  2.34726953E-01  8.13757326E-01
  1.00000000E+00  3.34946043E-02  2.34726953E-01  8.13757326E-01  1.00000000E+00
P(S=P) Contraction coefficients            R   N=         110
  0.00000000E+00  0.00000000E+00  0.00000000E+00  0.00000000E+00  0.00000000E+00
  0.00000000E+00  6.75797439E-02  3.23907296E-01  7.40895140E-01  1.00000000E+00
  0.00000000E+00  0.00000000E+00  0.00000000E+00  0.00000000E+00  0.00000000E+00
  0.00000000E+00  0.00000000E+00  6.89990666E-02  3.16423961E-01  7.44308291E-01
  1.00000000E+00  0.00000000E+00  0.00000000E+00  0.00000000E+00  0.00000000E+00
  0.00000000E+00  0.00000000E+00  0.00000000E+00  6.89990666E-02  3.16423961E-01
  7.44308291E-01  1.00000000E+00  0.00000000E+00  0.00000000E+00  0.00000000E+00
  0.00000000E+00  0.00000000E+00  0.00000000E+00  0.00000000E+00  6.89990666E-02
  3.16423961E-01  7.44308291E-01  1.00000000E+00  0.00000000E+00  0.00000000E+00
  0.00000000E+00  0.00000000E+00  0.00000000E+00  0.00000000E+00  0.00000000E+00
  6.89990666E-02  3.16423961E-01  7.44308291E-01  1.00000000E+00  0.00000000E+00
  0.00000000E+00  0.00000000E+00  0.00000000E+00  0.00000000E+00  0.00000000E+00
  0.00000000E+00  6.89990666E-02  3.16423961E-01  7.44308291E-01  1.00000000E+00
  0.00000000E+00  0.00000000E+00  0.00000000E+00  0.00000000E+00  0.00000000E+00
  0.00000000E+00  0.00000000E+00  0.00000000E+00  0.00000000E+00  0.00000000E+00
  0.00000000E+00  0.00000000E+00  0.00000000E+00  0.00000000E+00  0.00000000E+00
  0.00000000E+00  0.00000000E+00  0.00000000E+00  0.00000000E+00  0.00000000E+00
  0.00000000E+00  0.00000000E+00  0.00000000E+00  0.00000000E+00  0.00000000E+00
  0.00000000E+00  0.00000000E+00  0.00000000E+00  0.00000000E+00  0.00000000E+00
  0.00000000E+00  0.00000000E+00  0.00000000E+00  0.00000000E+00  0.00000000E+00
  0.00000000E+00  0.00000000E+00  0.00000000E+00  0.00000000E+00  0.00000000E+00
  0.00000000E+00  0.00000000E+00  0.00000000E+00  0.00000000E+00  0.00000000E+00
Coordinates of each shell                  R   N=         138
 -2.74260670E+00 -1.91649055E-03 -9.40259890E-01 -2.74260670E+00 -1.91649055E-03
 -9.40259890E-01 -2.74260670E+00 -1.91649055E-03 -9.40259890E-01 -2.74260670E+00
 -1.91649055E-03 -9.40259890E-01  3.62414148E+00 -5.33076217E-01  5.67444877E-01
  3.62414148E+00 -5.33076217E-01  5.67444877E-01  3.62414148E+00 -5.33076217E-01
  5.67444877E-01  3.62414148E+00 -5.33076217E-01  5.67444877E-01  1.37974037E+00
 -1.99187701E+00 -5.49910502E-01  1.37974037E+00 -1.99187701E+00 -5.49910502E-01
  1.37974037E+00 -1.99187701E+00 -5.49910502E-01  1.37974037E+00 -1.99187701E+00
 -5.49910502E-01  3.61598322E+00  2.25231963E+00 -1.79658350E-01  3.61598322E+00
  2.25231963E+00 -1.79658350E-01  3.61598322E+00  2.25231963E+00 -1.79658350E-01
  3.61598322E+00  2.25231963E+00 -1.79658350E-01 -1.08845938E+00 -1.06272919E+00
  4.73242029E-01 -1.08845938E+00 -1.06272919E+00  4.73242029E-01 -1.08845938E+00
 -1.06272919E+00  4.73242029E-01 -1.08845938E+00 -1.06272919E+00  4.73242029E-01
 -5.05215260E+00  8.50446112E-01  2.92810978E-01 -5.05215260E+00  8.50446112E-01
  2.92810978E-01 -5.05215260E+00  8.50446112E-01  2.92810978E-01 -5.05215260E+00
  8.50446112E-01  2.92810978E-01  3.59728660E+00 -7.09219483E-01  2.63372245E+00
  3.59728660E+00 -7.09219483E-01  2.63372245E+00  5.38249395E+00 -1.42293672E+00
 -6.96025898E-02  5.38249395E+00 -1.42293672E+00 -6.96025898E-02  1.33964603E+00
 -1.79443276E+00 -2.60887484E+00  1.33964603E+00 -1.79443276E+00 -2.60887484E+00
  1.57898199E+00 -4.00928625E+00 -1.05084088E-01  1.57898199E+00 -4.00928625E+00
 -1.05084088E-01  3.68443664E+00  2.45514961E+00 -2.23627376E+00  3.68443664E+00
  2.45514961E+00 -2.23627376E+00  1.90367770E+00  3.20091282E+00  4.81116518E-01
  1.90367770E+00  3.20091282E+00  4.81116518E-01  5.24681676E+00  3.24134956E+00
  6.17363882E-01  5.24681676E+00  3.24134956E+00  6.17363882E-01 -1.38941902E+00
 -1.30672688E+00  2.52509344E+00 -1.38941902E+00 -1.30672688E+00  2.52509344E+00
 -5.26797845E+00  2.88071493E+00 -2.87032471E-02 -5.26797845E+00  2.88071493E+00
 -2.87032471E-02 -5.08785704E+00  4.80587019E-01  2.33928800E+00 -5.08785704E+00
  4.80587019E-01  2.33928800E+00 -6.66535689E+00 -9.31963729E-02 -5.89800730E-01
 -6.66535689E+00 -9.31963729E-02 -5.89800730E-01
Constraint Structure                       R   N=          51
 -2.74260670E+00 -1.91649055E-03 -9.40259890E-01  3.62414148E+00 -5.33076217E-01
  5.67444877E-01  1.37974037E+00 -1.99187701E+00 -5.49910502E-01  3.61598322E+00
  2.25231963E+00 -1.79658350E-01 -1.08845938E+00 -1.06272919E+00  4.73242029E-01
 -5.05215260E+00  8.50446112E-01  2.92810978E-01  3.59728660E+00 -7.09219483E-01
  2.63372245E+00  5.38249395E+00 -1.42293672E+00 -6.96025898E-02  1.33964603E+00
 -1.79443276E+00 -2.60887484E+00  1.57898199E+00 -4.00928625E+00 -1.05084088E-01
  3.68443664E+00  2.45514961E+00 -2.23627376E+00  1.90367770E+00  3.20091282E+00
  4.81116518E-01  5.24681676E+00  3.24134956E+00  6.17363882E-01 -1.38941902E+00
 -1.30672688E+00  2.52509344E+00 -5.26797845E+00  2.88071493E+00 -2.87032471E-02
 -5.08785704E+00  4.80587019E-01  2.33928800E+00 -6.66535689E+00 -9.31963729E-02
 -5.89800730E-01
Num ILSW                                   I              100
ILSW                                       I   N=         100
           0           1           0           0           2           0
           0           0           0           0           0          -1
           0           0           0           0           0           0
           0           0           0           0           1           0
           1           0           0           0           0           0
           0           0      100000           0          -1           0
           0           0           0           0           0           0
           0           0           0           1           1           0
           0           0           1           0           0           0
           0           0           4          40           0           0
           0           0           0           0           0           0
           0           0           0           0           0           0
           0           0           0           0           0           0
           0           0           0           0           0           0
           0           0           0           0           0           0
           0           0           0           0           0           0
           0           0           0           0
Num RLSW                                   I               40
RLSW                                       R   N=          40
  1.00000000E+00  1.00000000E+00  1.00000000E+00  1.00000000E+00  1.00000000E+00
  0.00000000E+00  0.00000000E+00  1.00000000E+00  0.00000000E+00  0.00000000E+00
  0.00000000E+00  0.00000000E+00  1.00000000E+00  0.00000000E+00  0.00000000E+00
  0.00000000E+00  0.00000000E+00  1.00000000E+00  0.00000000E+00  0.00000000E+00
  0.00000000E+00  0.00000000E+00  1.00000000E+00  0.00000000E+00  0.00000000E+00
  0.00000000E+00  0.00000000E+00  1.00000000E+00  0.00000000E+00  0.00000000E+00
  0.00000000E+00  0.00000000E+00  0.00000000E+00  0.00000000E+00  0.00000000E+00
  0.00000000E+00  0.00000000E+00  0.00000000E+00  1.00000000E+00  1.00000000E+00
MxBond                                     I                4
NBond                                      I   N=          17
           2           4           4           4           3           4
           1           1           1           1           1           1
           1           1           1           1           1
IBond                                      I   N=          68
           5           6           0           0           3           4
           7           8           2           5           9          10
           2          11          12          13           1           3
          14           0           1          15          16          17
           2           0           0           0           2           0
           0           0           3           0           0           0
           3           0           0           0           4           0
           0           0           4           0           0           0
           4           0           0           0           5           0
           0           0           6           0           0           0
           6           0           0           0           6           0
           0           0
RBond                                      R   N=          68
  2.00000000E+00  1.00000000E+00  0.00000000E+00  0.00000000E+00  1.00000000E+00
  1.00000000E+00  1.00000000E+00  1.00000000E+00  1.00000000E+00  1.00000000E+00
  1.00000000E+00  1.00000000E+00  1.00000000E+00  1.00000000E+00  1.00000000E+00
  1.00000000E+00  2.00000000E+00  1.00000000E+00  1.00000000E+00  0.00000000E+00
  1.00000000E+00  1.00000000E+00  1.00000000E+00  1.00000000E+00  1.00000000E+00
  0.00000000E+00  0.00000000E+00  0.00000000E+00  1.00000000E+00  0.00000000E+00
  0.00000000E+00  0.00000000E+00  1.00000000E+00  0.00000000E+00  0.00000000E+00
  0.00000000E+00  1.00000000E+00  0.00000000E+00  0.00000000E+00  0.00000000E+00
  1.00000000E+00  0.00000000E+00  0.00000000E+00  0.00000000E+00  1.00000000E+00
  0.00000000E+00  0.00000000E+00  0.00000000E+00  1.00000000E+00  0.00000000E+00
  0.00000000E+00  0.00000000E+00  1.00000000E+00  0.00000000E+00  0.00000000E+00
  0.00000000E+00  1.00000000E+00  0.00000000E+00  0.00000000E+00  0.00000000E+00
  1.00000000E+00  0.00000000E+00  0.00000000E+00  0.00000000E+00  1.00000000E+00
  0.00000000E+00  0.00000000E+00  0.00000000E+00
Virial Ratio                               R      2.001757434574340E+00
SCF Energy                                 R     -2.501717921861773E+02
MP2 Energy                                 R     -2.509858366032572E+02
Total Energy                               R     -2.509858366032572E+02
Post-SCF wavefunction norm                 R      1.597158617839035E+00
RMS Force                                  R      5.614898550184612E-07
RMS Density                                R      8.993539513534160E-10
External E-field                           R   N=          35
  0.00000000E+00  0.00000000E+00  0.00000000E+00  0.00000000E+00  0.00000000E+00
  0.00000000E+00  0.00000000E+00  0.00000000E+00  0.00000000E+00  0.00000000E+00
  0.00000000E+00  0.00000000E+00  0.00000000E+00  0.00000000E+00  0.00000000E+00
  0.00000000E+00  0.00000000E+00  0.00000000E+00  0.00000000E+00  0.00000000E+00
  0.00000000E+00  0.00000000E+00  0.00000000E+00  0.00000000E+00  0.00000000E+00
  0.00000000E+00  0.00000000E+00  0.00000000E+00  0.00000000E+00  0.00000000E+00
  0.00000000E+00  0.00000000E+00  0.00000000E+00  0.00000000E+00  0.00000000E+00
IOpCl                                      I                0
IROHF                                      I                0
Alpha Orbital Energies                     R   N=         112
 -1.55573513E+01 -1.12730812E+01 -1.12433629E+01 -1.12267847E+01 -1.12246382E+01
 -1.12115320E+01 -1.21784175E+00 -1.06992792E+00 -9.72784818E-01 -9.10243551E-01
 -8.14942807E-01 -7.55967589E-01 -6.40972984E-01 -6.32069578E-01 -6.07029261E-01
 -5.86258506E-01 -5.78995419E-01 -5.41826802E-01 -5.16095209E-01 -4.89335403E-01
 -4.79754986E-01 -4.73988450E-01 -3.98058438E-01 -3.90989805E-01  1.71393013E-01
  2.45577863E-01  2.54531161E-01  2.71758914E-01  2.93500053E-01  3.05567998E-01
  3.10755794E-01  3.17234275E-01  3.28536491E-01  3.42980052E-01  3.46936382E-01
  3.51819092E-01  3.81561033E-01  4.00602809E-01  4.34659940E-01  4.67196626E-01
  5.87352448E-01  7.10363706E-01  7.26108405E-01  7.31971511E-01  7.45977680E-01
  7.54861716E-01  7.81059451E-01  8.31430550E-01  8.74631192E-01  9.02859302E-01
  9.18872704E-01  9.62149271E-01  9.69886054E-01  9.95956557E-01  1.03811792E+00
  1.05985882E+00  1.07656427E+00  1.08404343E+00  1.12816612E+00  1.13482860E+00
  1.14081083E+00  1.16644783E+00  1.17273195E+00  1.19283998E+00  1.20847446E+00
  1.22223524E+00  1.22709149E+00  1.23602522E+00  1.26216053E+00  1.30177533E+00
  1.31984395E+00  1.40292580E+00  1.45308134E+00  1.63692073E+00  1.68117026E+00
  1.69406291E+00  1.78067050E+00  1.82784374E+00  1.88966565E+00  1.92170632E+00
  1.99731584E+00  2.02200353E+00  2.07284583E+00  2.19093182E+00  2.24073695E+00
  2.27352321E+00  2.29427491E+00  2.30706141E+00  2.36765391E+00  2.41778376E+00
  2.43132633E+00  2.50856506E+00  2.55248063E+00  2.60834838E+00  2.62928306E+00
  2.66780821E+00  2.67090356E+00  2.73189477E+00  2.74365955E+00  2.82295547E+00
  2.88419193E+00  2.95096205E+00  2.99545369E+00  3.09753585E+00  3.26454515E+00
  3.33727446E+00  4.32088226E+00  4.55013104E+00  4.64624155E+00  4.71255286E+00
  4.81698700E+00  4.93241859E+00
Alpha MO coefficients                      R   N=       12544
  9.95194736E-01  2.46248163E-02 -7.54714422E-05 -3.33723833E-04  1.87904802E-03
 -4.21371059E-03  2.31003973E-04  2.67499357E-04 -1.94053399E-03 -2.92075086E-03
 -3.14030410E-03 -2.86062007E-03 -2.27081874E-04  2.00724114E-04 -1.85143804E-04
  8.35892027E-06  2.72965893E-05 -8.23216045E-06 -6.89167041E-07  1.09919490E-05
 -2.65376760E-04  9.77061581E-05  2.27517612E-04 -9.86758133E-05  1.34043149E-05
  1.07835608E-05  2.15838614E-05 -1.22280602E-05  8.18246010E-06 -5.22465965E-06
 -5.26775249E-07 -8.79314912E-06  1.56101007E-06  9.88265032E-06 -2.53402854E-05
  1.15571058E-04  3.27441256E-04 -2.11466866E-04  4.34830391E-04 -2.87363135E-05
 -1.06843215E-05  2.59623785E-05  2.86088135E-05 -3.96121554E-05  1.37795438E-05
  4.71600406E-06  1.28262880E-05 -9.19675825E-06 -4.18221073E-06  6.53470273E-06
 -1.31628518E-04 -5.98253326E-07  7.29588693E-05 -3.13206990E-05  7.96347043E-06
  5.33312575E-06  1.57458713E-05  4.56277389E-06  8.44006054E-07  4.24173392E-06
  3.48152145E-05  2.44257729E-04  4.18257382E-05 -4.43014207E-05  9.15742447E-05
  2.46877819E-03 -9.63236876E-04  5.81495537E-04 -5.33802000E-04 -3.21565387E-04
 -1.38735055E-04 -2.39534344E-04  2.12991359E-04 -2.44644424E-04  1.64320730E-04
 -8.23808013E-06  2.87586585E-04  2.34455316E-04 -9.02538732E-05 -1.04885376E-04
  1.86725258E-03  6.04445029E-04 -3.02935677E-04  8.20823295E-05 -2.02470597E-04
 -6.96525172E-05 -1.68297564E-04  5.69379267E-05  1.29401086E-04 -3.48143323E-05
  9.24337512E-06  1.35083877E-04  1.36090345E-05 -4.60434197E-06  6.12308972E-05
  1.01957036E-04 -2.93049843E-05 -1.43619772E-04  2.79263074E-07 -6.13988442E-07
  6.69355281E-06 -2.94040011E-05  4.22012877E-06 -6.06518658E-06 -9.76208574E-05
 -1.65452685E-04 -1.06453808E-04 -3.49045275E-05 -1.10601788E-04 -4.31112645E-04
 -1.07130221E-04 -3.69067491E-05 -4.56863046E-04  1.12391863E-04 -4.12488014E-05
  7.40162031E-06  1.91200602E-05  4.80722293E-04  4.31403517E-04  3.94376339E-05
 -5.52143188E-04 -2.07593305E-04  9.80610366E-06 -2.83536368E-04  1.85177449E-04
  7.21737528E-05  7.26437162E-05 -1.73027226E-04 -3.82054493E-04  1.46412964E-04
 -8.02621947E-05 -2.66657157E-05  1.53056802E-03 -1.16184646E-03  1.92176951E-04
  1.81516593E-04 -1.33985071E-05 -1.25421720E-04 -1.23109960E-04  3.78693385E-05
  2.43349118E-05  2.35649672E-05  6.96365531E-03  5.60317529E-04  5.83591346E-05
 -6.73791862E-07 -4.11878223E-05  1.29595016E-03 -1.37237991E-03 -1.75276907E-04
  2.07056275E-04 -4.14064770E-04 -8.47345892E-05 -1.57613173E-04  1.16963263E-04
  1.45377066E-04 -1.14853658E-04 -5.30581324E-05  1.63826836E-05  1.15719930E-04
  1.51947584E-04  3.17478720E-05 -8.06655157E-04 -7.99568147E-05 -3.51450423E-04
 -4.33308414E-04 -3.31447802E-05 -4.38216551E-06 -4.73171900E-05 -5.11891932E-05
 -9.14377542E-06 -8.87149298E-06  9.95687400E-01  2.70929602E-02 -2.93981298E-05
  1.93003002E-04 -1.32734235E-04 -9.94442049E-03 -1.20669405E-03  2.69182390E-04
 -3.68978231E-04 -1.52712690E-03 -2.11464845E-03 -1.70044917E-03 -4.76217080E-04
  2.37358219E-04 -2.55483399E-04 -3.49328889E-04 -2.75427827E-04  9.53763133E-05
 -3.89915065E-05 -8.39071253E-05  1.01184731E-03  4.77269311E-04 -2.82732577E-04
  4.18883337E-04  1.89769146E-04  1.25545231E-05 -8.99469181E-06 -1.25209510E-04
 -9.44281168E-06  4.24572635E-06 -1.39608874E-04 -2.62863222E-04  2.85512068E-05
  4.61311944E-04 -9.50237965E-07  6.02520184E-05 -1.26864805E-04  1.73293886E-04
  4.83425348E-06 -1.84451390E-04 -1.51201630E-04  7.67741084E-04  8.19797808E-05
  3.89440544E-04 -8.15090454E-05  2.25041467E-03 -2.77355459E-05  5.97774402E-05
 -5.35725559E-05 -5.76813803E-04 -3.82316648E-05  1.23826950E-04 -1.82835222E-04
  2.44531696E-04 -7.18691208E-05  2.41748582E-05  4.31953324E-05  1.05894132E-03
 -7.95013639E-04  4.64392339E-04 -4.45657220E-04 -4.27731952E-04 -5.26098070E-05
 -2.30744940E-04  2.15586323E-04  1.79204452E-04 -2.56602805E-05 -1.14730555E-05
  3.00410940E-06  2.75117534E-05  6.93840687E-06  1.55870198E-05 -1.97702092E-04
  1.88545705E-05  1.54696037E-04 -9.75178570E-05 -3.77210682E-06 -2.12673065E-06
  1.32831381E-06 -1.41590314E-05 -8.15102053E-07  2.10772421E-06  5.28905228E-05
 -1.07879910E-04 -4.10993261E-05  1.88164272E-05 -2.28842756E-05  1.39943418E-03
 -3.59340629E-04  1.03610848E-04  4.32289797E-04 -2.12355298E-05 -2.64949053E-05
 -4.08294198E-05  6.17815410E-07 -1.52976710E-06  6.05193976E-06  1.25183673E-05
  1.28513353E-05 -8.79226649E-06 -8.61053306E-06 -1.53544397E-06 -8.93236341E-05
  2.37559464E-05  9.36735132E-05  1.90606219E-05  1.04441683E-05  1.41256610E-06
  8.21395601E-06 -8.63552405E-07  2.07069243E-06 -1.36024131E-07  3.08619571E-04
 -2.43297937E-04  4.21445418E-05  8.37718052E-07 -1.39006388E-04  9.60619302E-04
 -1.72636176E-03  7.37540429E-04  4.36937402E-04  8.55925124E-05 -4.13853436E-05
  6.78659629E-05 -1.13830462E-04  5.56503210E-05 -6.29928861E-05  9.95760366E-01
  2.80381310E-02  3.90693728E-04 -1.49327813E-04 -1.78077608E-04 -1.35186045E-02
 -1.88818729E-04  6.96622191E-05  1.23120712E-04 -1.75073809E-03 -1.75597079E-03
 -1.81560853E-03  4.91905073E-06 -2.45854095E-05  2.61012571E-05 -2.76208221E-06
  1.32946615E-04  7.07194474E-06  6.79592828E-05  6.36386023E-06  3.41092753E-05
 -6.31598811E-05 -7.80527195E-05  6.90463880E-06  1.38744827E-05  1.74823883E-05
 -5.05842081E-05 -1.38735401E-07 -3.72254156E-05 -1.40911592E-04 -5.25384429E-04
  9.05064201E-05  2.55750618E-03  1.52673145E-04  2.34476264E-03  9.20976352E-05
  2.56099965E-03  1.85878402E-05  5.42225284E-05  5.43494255E-05  1.61189260E-05