87553625                                                                
Freq      RMP2-FC                                                     6-31G(d)            
Number of atoms                            I               27
Info1-9                                    I   N=           9
          39          37        1002           0           0         100
           6           2           1
Charge                                     I                0
Multiplicity                               I                1
Number of electrons                        I               86
Number of alpha electrons                  I               43
Number of beta electrons                   I               43
Number of basis functions                  I              197
Number of independent functions            I              197
Number of point charges in /Mol/           I                0
Number of translation vectors              I                0
Atomic numbers                             I   N=          27
           8           8           6           6           6           6
           6           6           6           6           6           1
           1           1           1           1           1           1
           1           1           1           1           1           1
           1           1           1
Nuclear charges                            R   N=          27
  8.00000000E+00  8.00000000E+00  6.00000000E+00  6.00000000E+00  6.00000000E+00
  6.00000000E+00  6.00000000E+00  6.00000000E+00  6.00000000E+00  6.00000000E+00
  6.00000000E+00  1.00000000E+00  1.00000000E+00  1.00000000E+00  1.00000000E+00
  1.00000000E+00  1.00000000E+00  1.00000000E+00  1.00000000E+00  1.00000000E+00
  1.00000000E+00  1.00000000E+00  1.00000000E+00  1.00000000E+00  1.00000000E+00
  1.00000000E+00  1.00000000E+00
Current cartesian coordinates              R   N=          81
 -2.15636684E+00 -8.58299817E-01 -4.75985951E-02 -4.87824914E+00  2.22085470E+00
 -1.29776018E+00  4.37180083E+00  3.53238656E-02  4.65250515E-01  6.65605081E+00
 -1.66338134E+00  6.08893578E-01  2.25582952E+00 -7.81396226E-01 -6.90094666E-01
 -1.22320218E-01  6.69451742E-01 -1.09297687E+00  4.69610039E+00  2.61978037E+00
  1.61507227E+00  8.91774898E+00 -6.43475630E-01 -8.83884818E-01 -6.47923510E+00
 -1.53484783E+00  8.17804089E-01 -4.48798311E+00  1.77424896E-01 -2.99323071E-01
 -9.12410608E+00 -4.27375617E-01  5.89517679E-01  6.15698102E+00 -3.54533868E+00
 -9.58696523E-02  7.20408160E+00 -1.89324957E+00  2.59810693E+00  2.23281133E+00
 -2.69063336E+00 -1.46185180E+00 -5.11223993E-01  9.71039153E-01 -3.10492349E+00
 -1.34964268E-01  2.51902504E+00 -1.79513210E-01  5.70367686E+00  2.46820906E+00
  3.41700140E+00  5.82310862E+00  3.85110075E+00  3.90667828E-01  2.89935103E+00
  3.56731644E+00  1.97162369E+00  9.57087103E+00  1.16604070E+00 -1.31263720E-01
  8.40636332E+00 -3.68474554E-01 -2.86786558E+00  1.05038171E+01 -1.96689299E+00
 -8.03811501E-01 -6.33744028E+00 -3.36758029E+00 -1.35247832E-01 -5.96886929E+00
 -1.88657178E+00  2.79327179E+00 -9.24510183E+00  1.38588103E+00  1.56602110E+00
 -9.61485954E+00 -1.06034994E-01 -1.38829576E+00 -1.05149910E+01 -1.71330039E+00
  1.41326771E+00
Force Field                                I                0
Int Atom Types                             I   N=          27
           0           0           0           0           0           0
           0           0           0           0           0           0
           0           0           0           0           0           0
           0           0           0           0           0           0
           0           0           0
MM charges                                 R   N=          27
  0.00000000E+00  0.00000000E+00  0.00000000E+00  0.00000000E+00  0.00000000E+00
  0.00000000E+00  0.00000000E+00  0.00000000E+00  0.00000000E+00  0.00000000E+00
  0.00000000E+00  0.00000000E+00  0.00000000E+00  0.00000000E+00  0.00000000E+00
  0.00000000E+00  0.00000000E+00  0.00000000E+00  0.00000000E+00  0.00000000E+00
  0.00000000E+00  0.00000000E+00  0.00000000E+00  0.00000000E+00  0.00000000E+00
  0.00000000E+00  0.00000000E+00
Integer atomic weights                     I   N=          27
          16          16          12          12          12          12
          12          12          12          12          12           1
           1           1           1           1           1           1
           1           1           1           1           1           1
           1           1           1
Real atomic weights                        R   N=          27
  1.59949146E+01  1.59949146E+01  1.20000000E+01  1.20000000E+01  1.20000000E+01
  1.20000000E+01  1.20000000E+01  1.20000000E+01  1.20000000E+01  1.20000000E+01
  1.20000000E+01  1.00782504E+00  1.00782504E+00  1.00782504E+00  1.00782504E+00
  1.00782504E+00  1.00782504E+00  1.00782504E+00  1.00782504E+00  1.00782504E+00
  1.00782504E+00  1.00782504E+00  1.00782504E+00  1.00782504E+00  1.00782504E+00
  1.00782504E+00  1.00782504E+00
Atom fragment info                         I   N=          27
           0           0           0           0           0           0
           0           0           0           0           0           0
           0           0           0           0           0           0
           0           0           0           0           0           0
           0           0           0
Atom residue num                           I   N=          27
           0           0           0           0           0           0
           0           0           0           0           0           0
           0           0           0           0           0           0
           0           0           0           0           0           0
           0           0           0
Nuclear spins                              I   N=          27
           0           0           0           0           0           0
           0           0           0           0           0           1
           1           1           1           1           1           1
           1           1           1           1           1           1
           1           1           1
Nuclear ZEff                               R   N=          27
 -5.60000000E+00 -5.60000000E+00 -3.60000000E+00 -3.60000000E+00 -3.60000000E+00
 -3.60000000E+00 -3.60000000E+00 -3.60000000E+00 -3.60000000E+00 -3.60000000E+00
 -3.60000000E+00 -1.00000000E+00 -1.00000000E+00 -1.00000000E+00 -1.00000000E+00
 -1.00000000E+00 -1.00000000E+00 -1.00000000E+00 -1.00000000E+00 -1.00000000E+00
 -1.00000000E+00 -1.00000000E+00 -1.00000000E+00 -1.00000000E+00 -1.00000000E+00
 -1.00000000E+00 -1.00000000E+00
Nuclear QMom                               R   N=          27
  0.00000000E+00  0.00000000E+00  0.00000000E+00  0.00000000E+00  0.00000000E+00
  0.00000000E+00  0.00000000E+00  0.00000000E+00  0.00000000E+00  0.00000000E+00
  0.00000000E+00  0.00000000E+00  0.00000000E+00  0.00000000E+00  0.00000000E+00
  0.00000000E+00  0.00000000E+00  0.00000000E+00  0.00000000E+00  0.00000000E+00
  0.00000000E+00  0.00000000E+00  0.00000000E+00  0.00000000E+00  0.00000000E+00
  0.00000000E+00  0.00000000E+00
Nuclear GFac                               R   N=          27
  0.00000000E+00  0.00000000E+00  0.00000000E+00  0.00000000E+00  0.00000000E+00
  0.00000000E+00  0.00000000E+00  0.00000000E+00  0.00000000E+00  0.00000000E+00
  0.00000000E+00  2.79284600E+00  2.79284600E+00  2.79284600E+00  2.79284600E+00
  2.79284600E+00  2.79284600E+00  2.79284600E+00  2.79284600E+00  2.79284600E+00
  2.79284600E+00  2.79284600E+00  2.79284600E+00  2.79284600E+00  2.79284600E+00
  2.79284600E+00  2.79284600E+00
MicOpt                                     I   N=          27
          -1          -1          -1          -1          -1          -1
          -1          -1          -1          -1          -1          -1
          -1          -1          -1          -1          -1          -1
          -1          -1          -1          -1          -1          -1
          -1          -1          -1
Number of contracted shells                I               76
Number of primitive shells                 I              185
Pure/Cartesian d shells                    I                1
Pure/Cartesian f shells                    I                0
Highest angular momentum                   I                2
Largest degree of contraction              I                6
Shell types                                I   N=          76
           0          -1          -1           2           0          -1
          -1           2           0          -1          -1           2
           0          -1          -1           2           0          -1
          -1           2           0          -1          -1           2
           0          -1          -1           2           0          -1
          -1           2           0          -1          -1           2
           0          -1          -1           2           0          -1
          -1           2           0           0           0           0
           0           0           0           0           0           0
           0           0           0           0           0           0
           0           0           0           0           0           0
           0           0           0           0           0           0
           0           0           0           0
Number of primitives per shell             I   N=          76
           6           3           1           1           6           3
           1           1           6           3           1           1
           6           3           1           1           6           3
           1           1           6           3           1           1
           6           3           1           1           6           3
           1           1           6           3           1           1
           6           3           1           1           6           3
           1           1           3           1           3           1
           3           1           3           1           3           1
           3           1           3           1           3           1
           3           1           3           1           3           1
           3           1           3           1           3           1
           3           1           3           1
Shell to atom map                          I   N=          76
           1           1           1           1           2           2
           2           2           3           3           3           3
           4           4           4           4           5           5
           5           5           6           6           6           6
           7           7           7           7           8           8
           8           8           9           9           9           9
          10          10          10          10          11          11
          11          11          12          12          13          13
          14          14          15          15          16          16
          17          17          18          18          19          19
          20          20          21          21          22          22
          23          23          24          24          25          25
          26          26          27          27
Primitive exponents                        R   N=         185
  5.48467166E+03  8.25234946E+02  1.88046958E+02  5.29645000E+01  1.68975704E+01
  5.79963534E+00  1.55396162E+01  3.59993359E+00  1.01376175E+00  2.70005823E-01
  8.00000000E-01  5.48467166E+03  8.25234946E+02  1.88046958E+02  5.29645000E+01
  1.68975704E+01  5.79963534E+00  1.55396162E+01  3.59993359E+00  1.01376175E+00
  2.70005823E-01  8.00000000E-01  3.04752488E+03  4.57369518E+02  1.03948685E+02
  2.92101553E+01  9.28666296E+00  3.16392696E+00  7.86827235E+00  1.88128854E+00
  5.44249258E-01  1.68714478E-01  8.00000000E-01  3.04752488E+03  4.57369518E+02
  1.03948685E+02  2.92101553E+01  9.28666296E+00  3.16392696E+00  7.86827235E+00
  1.88128854E+00  5.44249258E-01  1.68714478E-01  8.00000000E-01  3.04752488E+03
  4.57369518E+02  1.03948685E+02  2.92101553E+01  9.28666296E+00  3.16392696E+00
  7.86827235E+00  1.88128854E+00  5.44249258E-01  1.68714478E-01  8.00000000E-01
  3.04752488E+03  4.57369518E+02  1.03948685E+02  2.92101553E+01  9.28666296E+00
  3.16392696E+00  7.86827235E+00  1.88128854E+00  5.44249258E-01  1.68714478E-01
  8.00000000E-01  3.04752488E+03  4.57369518E+02  1.03948685E+02  2.92101553E+01
  9.28666296E+00  3.16392696E+00  7.86827235E+00  1.88128854E+00  5.44249258E-01
  1.68714478E-01  8.00000000E-01  3.04752488E+03  4.57369518E+02  1.03948685E+02
  2.92101553E+01  9.28666296E+00  3.16392696E+00  7.86827235E+00  1.88128854E+00
  5.44249258E-01  1.68714478E-01  8.00000000E-01  3.04752488E+03  4.57369518E+02
  1.03948685E+02  2.92101553E+01  9.28666296E+00  3.16392696E+00  7.86827235E+00
  1.88128854E+00  5.44249258E-01  1.68714478E-01  8.00000000E-01  3.04752488E+03
  4.57369518E+02  1.03948685E+02  2.92101553E+01  9.28666296E+00  3.16392696E+00
  7.86827235E+00  1.88128854E+00  5.44249258E-01  1.68714478E-01  8.00000000E-01
  3.04752488E+03  4.57369518E+02  1.03948685E+02  2.92101553E+01  9.28666296E+00
  3.16392696E+00  7.86827235E+00  1.88128854E+00  5.44249258E-01  1.68714478E-01
  8.00000000E-01  1.87311370E+01  2.82539436E+00  6.40121692E-01  1.61277759E-01
  1.87311370E+01  2.82539436E+00  6.40121692E-01  1.61277759E-01  1.87311370E+01
  2.82539436E+00  6.40121692E-01  1.61277759E-01  1.87311370E+01  2.82539436E+00
  6.40121692E-01  1.61277759E-01  1.87311370E+01  2.82539436E+00  6.40121692E-01
  1.61277759E-01  1.87311370E+01  2.82539436E+00  6.40121692E-01  1.61277759E-01
  1.87311370E+01  2.82539436E+00  6.40121692E-01  1.61277759E-01  1.87311370E+01
  2.82539436E+00  6.40121692E-01  1.61277759E-01  1.87311370E+01  2.82539436E+00
  6.40121692E-01  1.61277759E-01  1.87311370E+01  2.82539436E+00  6.40121692E-01
  1.61277759E-01  1.87311370E+01  2.82539436E+00  6.40121692E-01  1.61277759E-01
  1.87311370E+01  2.82539436E+00  6.40121692E-01  1.61277759E-01  1.87311370E+01
  2.82539436E+00  6.40121692E-01  1.61277759E-01  1.87311370E+01  2.82539436E+00
  6.40121692E-01  1.61277759E-01  1.87311370E+01  2.82539436E+00  6.40121692E-01
  1.61277759E-01  1.87311370E+01  2.82539436E+00  6.40121692E-01  1.61277759E-01
Contraction coefficients                   R   N=         185
  1.83107443E-03  1.39501722E-02  6.84450781E-02  2.32714336E-01  4.70192898E-01
  3.58520853E-01 -1.10777550E-01 -1.48026263E-01  1.13076702E+00  1.00000000E+00
  1.00000000E+00  1.83107443E-03  1.39501722E-02  6.84450781E-02  2.32714336E-01
  4.70192898E-01  3.58520853E-01 -1.10777550E-01 -1.48026263E-01  1.13076702E+00
  1.00000000E+00  1.00000000E+00  1.83473713E-03  1.40373228E-02  6.88426223E-02
  2.32184443E-01  4.67941348E-01  3.62311985E-01 -1.19332420E-01 -1.60854152E-01
  1.14345644E+00  1.00000000E+00  1.00000000E+00  1.83473713E-03  1.40373228E-02
  6.88426223E-02  2.32184443E-01  4.67941348E-01  3.62311985E-01 -1.19332420E-01
 -1.60854152E-01  1.14345644E+00  1.00000000E+00  1.00000000E+00  1.83473713E-03
  1.40373228E-02  6.88426223E-02  2.32184443E-01  4.67941348E-01  3.62311985E-01
 -1.19332420E-01 -1.60854152E-01  1.14345644E+00  1.00000000E+00  1.00000000E+00
  1.83473713E-03  1.40373228E-02  6.88426223E-02  2.32184443E-01  4.67941348E-01
  3.62311985E-01 -1.19332420E-01 -1.60854152E-01  1.14345644E+00  1.00000000E+00
  1.00000000E+00  1.83473713E-03  1.40373228E-02  6.88426223E-02  2.32184443E-01
  4.67941348E-01  3.62311985E-01 -1.19332420E-01 -1.60854152E-01  1.14345644E+00
  1.00000000E+00  1.00000000E+00  1.83473713E-03  1.40373228E-02  6.88426223E-02
  2.32184443E-01  4.67941348E-01  3.62311985E-01 -1.19332420E-01 -1.60854152E-01
  1.14345644E+00  1.00000000E+00  1.00000000E+00  1.83473713E-03  1.40373228E-02
  6.88426223E-02  2.32184443E-01  4.67941348E-01  3.62311985E-01 -1.19332420E-01
 -1.60854152E-01  1.14345644E+00  1.00000000E+00  1.00000000E+00  1.83473713E-03
  1.40373228E-02  6.88426223E-02  2.32184443E-01  4.67941348E-01  3.62311985E-01
 -1.19332420E-01 -1.60854152E-01  1.14345644E+00  1.00000000E+00  1.00000000E+00
  1.83473713E-03  1.40373228E-02  6.88426223E-02  2.32184443E-01  4.67941348E-01
  3.62311985E-01 -1.19332420E-01 -1.60854152E-01  1.14345644E+00  1.00000000E+00
  1.00000000E+00  3.34946043E-02  2.34726953E-01  8.13757326E-01  1.00000000E+00
  3.34946043E-02  2.34726953E-01  8.13757326E-01  1.00000000E+00  3.34946043E-02
  2.34726953E-01  8.13757326E-01  1.00000000E+00  3.34946043E-02  2.34726953E-01
  8.13757326E-01  1.00000000E+00  3.34946043E-02  2.34726953E-01  8.13757326E-01
  1.00000000E+00  3.34946043E-02  2.34726953E-01  8.13757326E-01  1.00000000E+00
  3.34946043E-02  2.34726953E-01  8.13757326E-01  1.00000000E+00  3.34946043E-02
  2.34726953E-01  8.13757326E-01  1.00000000E+00  3.34946043E-02  2.34726953E-01
  8.13757326E-01  1.00000000E+00  3.34946043E-02  2.34726953E-01  8.13757326E-01
  1.00000000E+00  3.34946043E-02  2.34726953E-01  8.13757326E-01  1.00000000E+00
  3.34946043E-02  2.34726953E-01  8.13757326E-01  1.00000000E+00  3.34946043E-02
  2.34726953E-01  8.13757326E-01  1.00000000E+00  3.34946043E-02  2.34726953E-01
  8.13757326E-01  1.00000000E+00  3.34946043E-02  2.34726953E-01  8.13757326E-01
  1.00000000E+00  3.34946043E-02  2.34726953E-01  8.13757326E-01  1.00000000E+00
P(S=P) Contraction coefficients            R   N=         185
  0.00000000E+00  0.00000000E+00  0.00000000E+00  0.00000000E+00  0.00000000E+00
  0.00000000E+00  7.08742682E-02  3.39752839E-01  7.27158577E-01  1.00000000E+00
  0.00000000E+00  0.00000000E+00  0.00000000E+00  0.00000000E+00  0.00000000E+00
  0.00000000E+00  0.00000000E+00  7.08742682E-02  3.39752839E-01  7.27158577E-01
  1.00000000E+00  0.00000000E+00  0.00000000E+00  0.00000000E+00  0.00000000E+00
  0.00000000E+00  0.00000000E+00  0.00000000E+00  6.89990666E-02  3.16423961E-01
  7.44308291E-01  1.00000000E+00  0.00000000E+00  0.00000000E+00  0.00000000E+00
  0.00000000E+00  0.00000000E+00  0.00000000E+00  0.00000000E+00  6.89990666E-02
  3.16423961E-01  7.44308291E-01  1.00000000E+00  0.00000000E+00  0.00000000E+00
  0.00000000E+00  0.00000000E+00  0.00000000E+00  0.00000000E+00  0.00000000E+00
  6.89990666E-02  3.16423961E-01  7.44308291E-01  1.00000000E+00  0.00000000E+00
  0.00000000E+00  0.00000000E+00  0.00000000E+00  0.00000000E+00  0.00000000E+00
  0.00000000E+00  6.89990666E-02  3.16423961E-01  7.44308291E-01  1.00000000E+00
  0.00000000E+00  0.00000000E+00  0.00000000E+00  0.00000000E+00  0.00000000E+00
  0.00000000E+00  0.00000000E+00  6.89990666E-02  3.16423961E-01  7.44308291E-01
  1.00000000E+00  0.00000000E+00  0.00000000E+00  0.00000000E+00  0.00000000E+00
  0.00000000E+00  0.00000000E+00  0.00000000E+00  6.89990666E-02  3.16423961E-01
  7.44308291E-01  1.00000000E+00  0.00000000E+00  0.00000000E+00  0.00000000E+00
  0.00000000E+00  0.00000000E+00  0.00000000E+00  0.00000000E+00  6.89990666E-02
  3.16423961E-01  7.44308291E-01  1.00000000E+00  0.00000000E+00  0.00000000E+00
  0.00000000E+00  0.00000000E+00  0.00000000E+00  0.00000000E+00  0.00000000E+00
  6.89990666E-02  3.16423961E-01  7.44308291E-01  1.00000000E+00  0.00000000E+00
  0.00000000E+00  0.00000000E+00  0.00000000E+00  0.00000000E+00  0.00000000E+00
  0.00000000E+00  6.89990666E-02  3.16423961E-01  7.44308291E-01  1.00000000E+00
  0.00000000E+00  0.00000000E+00  0.00000000E+00  0.00000000E+00  0.00000000E+00
  0.00000000E+00  0.00000000E+00  0.00000000E+00  0.00000000E+00  0.00000000E+00
  0.00000000E+00  0.00000000E+00  0.00000000E+00  0.00000000E+00  0.00000000E+00
  0.00000000E+00  0.00000000E+00  0.00000000E+00  0.00000000E+00  0.00000000E+00
  0.00000000E+00  0.00000000E+00  0.00000000E+00  0.00000000E+00  0.00000000E+00
  0.00000000E+00  0.00000000E+00  0.00000000E+00  0.00000000E+00  0.00000000E+00
  0.00000000E+00  0.00000000E+00  0.00000000E+00  0.00000000E+00  0.00000000E+00
  0.00000000E+00  0.00000000E+00  0.00000000E+00  0.00000000E+00  0.00000000E+00
  0.00000000E+00  0.00000000E+00  0.00000000E+00  0.00000000E+00  0.00000000E+00
  0.00000000E+00  0.00000000E+00  0.00000000E+00  0.00000000E+00  0.00000000E+00
  0.00000000E+00  0.00000000E+00  0.00000000E+00  0.00000000E+00  0.00000000E+00
  0.00000000E+00  0.00000000E+00  0.00000000E+00  0.00000000E+00  0.00000000E+00
  0.00000000E+00  0.00000000E+00  0.00000000E+00  0.00000000E+00  0.00000000E+00
Coordinates of each shell                  R   N=         228
 -2.15636684E+00 -8.58299817E-01 -4.75985951E-02 -2.15636684E+00 -8.58299817E-01
 -4.75985951E-02 -2.15636684E+00 -8.58299817E-01 -4.75985951E-02 -2.15636684E+00
 -8.58299817E-01 -4.75985951E-02 -4.87824914E+00  2.22085470E+00 -1.29776018E+00
 -4.87824914E+00  2.22085470E+00 -1.29776018E+00 -4.87824914E+00  2.22085470E+00
 -1.29776018E+00 -4.87824914E+00  2.22085470E+00 -1.29776018E+00  4.37180083E+00
  3.53238656E-02  4.65250515E-01  4.37180083E+00  3.53238656E-02  4.65250515E-01
  4.37180083E+00  3.53238656E-02  4.65250515E-01  4.37180083E+00  3.53238656E-02
  4.65250515E-01  6.65605081E+00 -1.66338134E+00  6.08893578E-01  6.65605081E+00
 -1.66338134E+00  6.08893578E-01  6.65605081E+00 -1.66338134E+00  6.08893578E-01
  6.65605081E+00 -1.66338134E+00  6.08893578E-01  2.25582952E+00 -7.81396226E-01
 -6.90094666E-01  2.25582952E+00 -7.81396226E-01 -6.90094666E-01  2.25582952E+00
 -7.81396226E-01 -6.90094666E-01  2.25582952E+00 -7.81396226E-01 -6.90094666E-01
 -1.22320218E-01  6.69451742E-01 -1.09297687E+00 -1.22320218E-01  6.69451742E-01
 -1.09297687E+00 -1.22320218E-01  6.69451742E-01 -1.09297687E+00 -1.22320218E-01
  6.69451742E-01 -1.09297687E+00  4.69610039E+00  2.61978037E+00  1.61507227E+00
  4.69610039E+00  2.61978037E+00  1.61507227E+00  4.69610039E+00  2.61978037E+00
  1.61507227E+00  4.69610039E+00  2.61978037E+00  1.61507227E+00  8.91774898E+00
 -6.43475630E-01 -8.83884818E-01  8.91774898E+00 -6.43475630E-01 -8.83884818E-01
  8.91774898E+00 -6.43475630E-01 -8.83884818E-01  8.91774898E+00 -6.43475630E-01
 -8.83884818E-01 -6.47923510E+00 -1.53484783E+00  8.17804089E-01 -6.47923510E+00
 -1.53484783E+00  8.17804089E-01 -6.47923510E+00 -1.53484783E+00  8.17804089E-01
 -6.47923510E+00 -1.53484783E+00  8.17804089E-01 -4.48798311E+00  1.77424896E-01
 -2.99323071E-01 -4.48798311E+00  1.77424896E-01 -2.99323071E-01 -4.48798311E+00
  1.77424896E-01 -2.99323071E-01 -4.48798311E+00  1.77424896E-01 -2.99323071E-01
 -9.12410608E+00 -4.27375617E-01  5.89517679E-01 -9.12410608E+00 -4.27375617E-01
  5.89517679E-01 -9.12410608E+00 -4.27375617E-01  5.89517679E-01 -9.12410608E+00
 -4.27375617E-01  5.89517679E-01  6.15698102E+00 -3.54533868E+00 -9.58696523E-02
  6.15698102E+00 -3.54533868E+00 -9.58696523E-02  7.20408160E+00 -1.89324957E+00
  2.59810693E+00  7.20408160E+00 -1.89324957E+00  2.59810693E+00  2.23281133E+00
 -2.69063336E+00 -1.46185180E+00  2.23281133E+00 -2.69063336E+00 -1.46185180E+00
 -5.11223993E-01  9.71039153E-01 -3.10492349E+00 -5.11223993E-01  9.71039153E-01
 -3.10492349E+00 -1.34964268E-01  2.51902504E+00 -1.79513210E-01 -1.34964268E-01
  2.51902504E+00 -1.79513210E-01  5.70367686E+00  2.46820906E+00  3.41700140E+00
  5.70367686E+00  2.46820906E+00  3.41700140E+00  5.82310862E+00  3.85110075E+00
  3.90667828E-01  5.82310862E+00  3.85110075E+00  3.90667828E-01  2.89935103E+00
  3.56731644E+00  1.97162369E+00  2.89935103E+00  3.56731644E+00  1.97162369E+00
  9.57087103E+00  1.16604070E+00 -1.31263720E-01  9.57087103E+00  1.16604070E+00
 -1.31263720E-01  8.40636332E+00 -3.68474554E-01 -2.86786558E+00  8.40636332E+00
 -3.68474554E-01 -2.86786558E+00  1.05038171E+01 -1.96689299E+00 -8.03811501E-01
  1.05038171E+01 -1.96689299E+00 -8.03811501E-01 -6.33744028E+00 -3.36758029E+00
 -1.35247832E-01 -6.33744028E+00 -3.36758029E+00 -1.35247832E-01 -5.96886929E+00
 -1.88657178E+00  2.79327179E+00 -5.96886929E+00 -1.88657178E+00  2.79327179E+00
 -9.24510183E+00  1.38588103E+00  1.56602110E+00 -9.24510183E+00  1.38588103E+00
  1.56602110E+00 -9.61485954E+00 -1.06034994E-01 -1.38829576E+00 -9.61485954E+00
 -1.06034994E-01 -1.38829576E+00 -1.05149910E+01 -1.71330039E+00  1.41326771E+00
 -1.05149910E+01 -1.71330039E+00  1.41326771E+00
Constraint Structure                       R   N=          81
 -2.15636684E+00 -8.58299817E-01 -4.75985951E-02 -4.87824914E+00  2.22085470E+00
 -1.29776018E+00  4.37180083E+00  3.53238656E-02  4.65250515E-01  6.65605081E+00
 -1.66338134E+00  6.08893578E-01  2.25582952E+00 -7.81396226E-01 -6.90094666E-01
 -1.22320218E-01  6.69451742E-01 -1.09297687E+00  4.69610039E+00  2.61978037E+00
  1.61507227E+00  8.91774898E+00 -6.43475630E-01 -8.83884818E-01 -6.47923510E+00
 -1.53484783E+00  8.17804089E-01 -4.48798311E+00  1.77424896E-01 -2.99323071E-01
 -9.12410608E+00 -4.27375617E-01  5.89517679E-01  6.15698102E+00 -3.54533868E+00
 -9.58696523E-02  7.20408160E+00 -1.89324957E+00  2.59810693E+00  2.23281133E+00
 -2.69063336E+00 -1.46185180E+00 -5.11223993E-01  9.71039153E-01 -3.10492349E+00
 -1.34964268E-01  2.51902504E+00 -1.79513210E-01  5.70367686E+00  2.46820906E+00
  3.41700140E+00  5.82310862E+00  3.85110075E+00  3.90667828E-01  2.89935103E+00
  3.56731644E+00  1.97162369E+00  9.57087103E+00  1.16604070E+00 -1.31263720E-01
  8.40636332E+00 -3.68474554E-01 -2.86786558E+00  1.05038171E+01 -1.96689299E+00
 -8.03811501E-01 -6.33744028E+00 -3.36758029E+00 -1.35247832E-01 -5.96886929E+00
 -1.88657178E+00  2.79327179E+00 -9.24510183E+00  1.38588103E+00  1.56602110E+00
 -9.61485954E+00 -1.06034994E-01 -1.38829576E+00 -1.05149910E+01 -1.71330039E+00
  1.41326771E+00
Num ILSW                                   I              100
ILSW                                       I   N=         100
           0           1           0           0           2           0
           0           0           0           0           0          -1
           0           0           0           0           0           0
           0           0           0           0           1           0
           1           0           0           0           0           0
           0           0      100000           0          -1           0
           0           0           0           0           0           0
           0           0           0           1           1           0
           0           0           1           0           0           0
           0           0           4          40           0           0
           0           0           0           0           0           0
           0           0           0           0           0           0
           0           0           0           0           0           0
           0           0           0           0           0           0
           0           0           0           0           0           0
           0           0           0           0           0           0
           0           0           0           0
Num RLSW                                   I               40
RLSW                                       R   N=          40
  1.00000000E+00  1.00000000E+00  1.00000000E+00  1.00000000E+00  1.00000000E+00
  0.00000000E+00  0.00000000E+00  1.00000000E+00  0.00000000E+00  0.00000000E+00
  0.00000000E+00  0.00000000E+00  1.00000000E+00  0.00000000E+00  0.00000000E+00
  0.00000000E+00  0.00000000E+00  1.00000000E+00  0.00000000E+00  0.00000000E+00
  0.00000000E+00  0.00000000E+00  1.00000000E+00  0.00000000E+00  0.00000000E+00
  0.00000000E+00  0.00000000E+00  1.00000000E+00  0.00000000E+00  0.00000000E+00
  0.00000000E+00  0.00000000E+00  0.00000000E+00  0.00000000E+00  0.00000000E+00
  0.00000000E+00  0.00000000E+00  0.00000000E+00  1.00000000E+00  1.00000000E+00
MxBond                                     I                4
NBond                                      I   N=          27
           2           1           3           4           3           4
           4           4           4           3           4           1
           1           1           1           1           1           1
           1           1           1           1           1           1
           1           1           1
IBond                                      I   N=         108
           6          10           0           0          10           0
           0           0           4           5           7           0
           3           8          12          13           3           6
          14           0           1           5          15          16
           3          17          18          19           4          20
          21          22          10          11          23          24
           1           2           9           0           9          25
          26          27           4           0           0           0
           4           0           0           0           5           0
           0           0           6           0           0           0
           6           0           0           0           7           0
           0           0           7           0           0           0
           7           0           0           0           8           0
           0           0           8           0           0           0
           8           0           0           0           9           0
           0           0           9           0           0           0
          11           0           0           0          11           0
           0           0          11           0           0           0
RBond                                      R   N=         108
  1.00000000E+00  1.50000000E+00  0.00000000E+00  0.00000000E+00  2.00000000E+00
  0.00000000E+00  0.00000000E+00  0.00000000E+00  1.00000000E+00  2.00000000E+00