opt=(Tight,CalcAll)                                                     
Freq      RMP2-FC                                                     6-31G(d)            
Number of atoms                            I               10
Info1-9                                    I   N=           9
          19          19        1002           0           0         100
           6           2           1
Charge                                     I                0
Multiplicity                               I                1
Number of electrons                        I               40
Number of alpha electrons                  I               20
Number of beta electrons                   I               20
Number of basis functions                  I               85
Number of independent functions            I               85
Number of point charges in /Mol/           I                0
Number of translation vectors              I                0
Atomic numbers                             I   N=          10
           8           8           7           6           6           1
           1           1           1           1
Nuclear charges                            R   N=          10
  8.00000000E+00  8.00000000E+00  7.00000000E+00  6.00000000E+00  6.00000000E+00
  1.00000000E+00  1.00000000E+00  1.00000000E+00  1.00000000E+00  1.00000000E+00
Current cartesian coordinates              R   N=          30
 -3.03377994E+00 -1.37521342E+00  4.39164698E-02 -1.15014527E+00  2.51181048E+00
 -1.34017731E-02  1.17878604E+00 -1.17144594E+00 -1.28133608E-01  3.63656121E+00
  2.29452226E-02  5.63759387E-02 -9.82520014E-01  2.04999115E-01 -1.85052314E-02
  1.01540143E+00 -3.06118397E+00  9.26273244E-02  4.38954975E+00 -4.13487086E-02
  1.98279485E+00  3.41631205E+00  1.99099641E+00 -5.05015881E-01  4.96393252E+00
 -9.05561256E-01 -1.22191642E+00 -4.48954349E+00 -2.43223416E-01  7.71035653E-02
Force Field                                I                0
Int Atom Types                             I   N=          10
           0           0           0           0           0           0
           0           0           0           0
MM charges                                 R   N=          10
  0.00000000E+00  0.00000000E+00  0.00000000E+00  0.00000000E+00  0.00000000E+00
  0.00000000E+00  0.00000000E+00  0.00000000E+00  0.00000000E+00  0.00000000E+00
Integer atomic weights                     I   N=          10
          16          16          14          12          12           1
           1           1           1           1
Real atomic weights                        R   N=          10
  1.59949146E+01  1.59949146E+01  1.40030740E+01  1.20000000E+01  1.20000000E+01
  1.00782504E+00  1.00782504E+00  1.00782504E+00  1.00782504E+00  1.00782504E+00
Atom fragment info                         I   N=          10
           0           0           0           0           0           0
           0           0           0           0
Atom residue num                           I   N=          10
           0           0           0           0           0           0
           0           0           0           0
Nuclear spins                              I   N=          10
           0           0           2           0           0           1
           1           1           1           1
Nuclear ZEff                               R   N=          10
 -5.60000000E+00 -5.60000000E+00 -4.55000000E+00 -3.60000000E+00 -3.60000000E+00
 -1.00000000E+00 -1.00000000E+00 -1.00000000E+00 -1.00000000E+00 -1.00000000E+00
Nuclear QMom                               R   N=          10
  0.00000000E+00  0.00000000E+00  2.04400000E+00  0.00000000E+00  0.00000000E+00
  0.00000000E+00  0.00000000E+00  0.00000000E+00  0.00000000E+00  0.00000000E+00
Nuclear GFac                               R   N=          10
  0.00000000E+00  0.00000000E+00  4.03761000E-01  0.00000000E+00  0.00000000E+00
  2.79284600E+00  2.79284600E+00  2.79284600E+00  2.79284600E+00  2.79284600E+00
MicOpt                                     I   N=          10
          -1          -1          -1          -1          -1          -1
          -1          -1          -1          -1
Number of contracted shells                I               30
Number of primitive shells                 I               75
Pure/Cartesian d shells                    I                1
Pure/Cartesian f shells                    I                0
Highest angular momentum                   I                2
Largest degree of contraction              I                6
Shell types                                I   N=          30
           0          -1          -1           2           0          -1
          -1           2           0          -1          -1           2
           0          -1          -1           2           0          -1
          -1           2           0           0           0           0
           0           0           0           0           0           0
Number of primitives per shell             I   N=          30
           6           3           1           1           6           3
           1           1           6           3           1           1
           6           3           1           1           6           3
           1           1           3           1           3           1
           3           1           3           1           3           1
Shell to atom map                          I   N=          30
           1           1           1           1           2           2
           2           2           3           3           3           3
           4           4           4           4           5           5
           5           5           6           6           7           7
           8           8           9           9          10          10
Primitive exponents                        R   N=          75
  5.48467166E+03  8.25234946E+02  1.88046958E+02  5.29645000E+01  1.68975704E+01
  5.79963534E+00  1.55396162E+01  3.59993359E+00  1.01376175E+00  2.70005823E-01
  8.00000000E-01  5.48467166E+03  8.25234946E+02  1.88046958E+02  5.29645000E+01
  1.68975704E+01  5.79963534E+00  1.55396162E+01  3.59993359E+00  1.01376175E+00
  2.70005823E-01  8.00000000E-01  4.17351146E+03  6.27457911E+02  1.42902093E+02
  4.02343293E+01  1.28202129E+01  4.39043701E+00  1.16263619E+01  2.71627981E+00
  7.72218397E-01  2.12031498E-01  8.00000000E-01  3.04752488E+03  4.57369518E+02
  1.03948685E+02  2.92101553E+01  9.28666296E+00  3.16392696E+00  7.86827235E+00
  1.88128854E+00  5.44249258E-01  1.68714478E-01  8.00000000E-01  3.04752488E+03
  4.57369518E+02  1.03948685E+02  2.92101553E+01  9.28666296E+00  3.16392696E+00
  7.86827235E+00  1.88128854E+00  5.44249258E-01  1.68714478E-01  8.00000000E-01
  1.87311370E+01  2.82539436E+00  6.40121692E-01  1.61277759E-01  1.87311370E+01
  2.82539436E+00  6.40121692E-01  1.61277759E-01  1.87311370E+01  2.82539436E+00
  6.40121692E-01  1.61277759E-01  1.87311370E+01  2.82539436E+00  6.40121692E-01
  1.61277759E-01  1.87311370E+01  2.82539436E+00  6.40121692E-01  1.61277759E-01
Contraction coefficients                   R   N=          75
  1.83107443E-03  1.39501722E-02  6.84450781E-02  2.32714336E-01  4.70192898E-01
  3.58520853E-01 -1.10777550E-01 -1.48026263E-01  1.13076702E+00  1.00000000E+00
  1.00000000E+00  1.83107443E-03  1.39501722E-02  6.84450781E-02  2.32714336E-01
  4.70192898E-01  3.58520853E-01 -1.10777550E-01 -1.48026263E-01  1.13076702E+00
  1.00000000E+00  1.00000000E+00  1.83477216E-03  1.39946270E-02  6.85865518E-02
  2.32240873E-01  4.69069948E-01  3.60455199E-01 -1.14961182E-01 -1.69117479E-01
  1.14585195E+00  1.00000000E+00  1.00000000E+00  1.83473713E-03  1.40373228E-02
  6.88426223E-02  2.32184443E-01  4.67941348E-01  3.62311985E-01 -1.19332420E-01
 -1.60854152E-01  1.14345644E+00  1.00000000E+00  1.00000000E+00  1.83473713E-03
  1.40373228E-02  6.88426223E-02  2.32184443E-01  4.67941348E-01  3.62311985E-01
 -1.19332420E-01 -1.60854152E-01  1.14345644E+00  1.00000000E+00  1.00000000E+00
  3.34946043E-02  2.34726953E-01  8.13757326E-01  1.00000000E+00  3.34946043E-02
  2.34726953E-01  8.13757326E-01  1.00000000E+00  3.34946043E-02  2.34726953E-01
  8.13757326E-01  1.00000000E+00  3.34946043E-02  2.34726953E-01  8.13757326E-01
  1.00000000E+00  3.34946043E-02  2.34726953E-01  8.13757326E-01  1.00000000E+00
P(S=P) Contraction coefficients            R   N=          75
  0.00000000E+00  0.00000000E+00  0.00000000E+00  0.00000000E+00  0.00000000E+00
  0.00000000E+00  7.08742682E-02  3.39752839E-01  7.27158577E-01  1.00000000E+00
  0.00000000E+00  0.00000000E+00  0.00000000E+00  0.00000000E+00  0.00000000E+00
  0.00000000E+00  0.00000000E+00  7.08742682E-02  3.39752839E-01  7.27158577E-01
  1.00000000E+00  0.00000000E+00  0.00000000E+00  0.00000000E+00  0.00000000E+00
  0.00000000E+00  0.00000000E+00  0.00000000E+00  6.75797439E-02  3.23907296E-01
  7.40895140E-01  1.00000000E+00  0.00000000E+00  0.00000000E+00  0.00000000E+00
  0.00000000E+00  0.00000000E+00  0.00000000E+00  0.00000000E+00  6.89990666E-02
  3.16423961E-01  7.44308291E-01  1.00000000E+00  0.00000000E+00  0.00000000E+00
  0.00000000E+00  0.00000000E+00  0.00000000E+00  0.00000000E+00  0.00000000E+00
  6.89990666E-02  3.16423961E-01  7.44308291E-01  1.00000000E+00  0.00000000E+00
  0.00000000E+00  0.00000000E+00  0.00000000E+00  0.00000000E+00  0.00000000E+00
  0.00000000E+00  0.00000000E+00  0.00000000E+00  0.00000000E+00  0.00000000E+00
  0.00000000E+00  0.00000000E+00  0.00000000E+00  0.00000000E+00  0.00000000E+00
  0.00000000E+00  0.00000000E+00  0.00000000E+00  0.00000000E+00  0.00000000E+00
Coordinates of each shell                  R   N=          90
 -3.03377994E+00 -1.37521342E+00  4.39164698E-02 -3.03377994E+00 -1.37521342E+00
  4.39164698E-02 -3.03377994E+00 -1.37521342E+00  4.39164698E-02 -3.03377994E+00
 -1.37521342E+00  4.39164698E-02 -1.15014527E+00  2.51181048E+00 -1.34017731E-02
 -1.15014527E+00  2.51181048E+00 -1.34017731E-02 -1.15014527E+00  2.51181048E+00
 -1.34017731E-02 -1.15014527E+00  2.51181048E+00 -1.34017731E-02  1.17878604E+00
 -1.17144594E+00 -1.28133608E-01  1.17878604E+00 -1.17144594E+00 -1.28133608E-01
  1.17878604E+00 -1.17144594E+00 -1.28133608E-01  1.17878604E+00 -1.17144594E+00
 -1.28133608E-01  3.63656121E+00  2.29452226E-02  5.63759387E-02  3.63656121E+00
  2.29452226E-02  5.63759387E-02  3.63656121E+00  2.29452226E-02  5.63759387E-02
  3.63656121E+00  2.29452226E-02  5.63759387E-02 -9.82520014E-01  2.04999115E-01
 -1.85052314E-02 -9.82520014E-01  2.04999115E-01 -1.85052314E-02 -9.82520014E-01
  2.04999115E-01 -1.85052314E-02 -9.82520014E-01  2.04999115E-01 -1.85052314E-02
  1.01540143E+00 -3.06118397E+00  9.26273244E-02  1.01540143E+00 -3.06118397E+00
  9.26273244E-02  4.38954975E+00 -4.13487086E-02  1.98279485E+00  4.38954975E+00
 -4.13487086E-02  1.98279485E+00  3.41631205E+00  1.99099641E+00 -5.05015881E-01
  3.41631205E+00  1.99099641E+00 -5.05015881E-01  4.96393252E+00 -9.05561256E-01
 -1.22191642E+00  4.96393252E+00 -9.05561256E-01 -1.22191642E+00 -4.48954349E+00
 -2.43223416E-01  7.71035653E-02 -4.48954349E+00 -2.43223416E-01  7.71035653E-02
Constraint Structure                       R   N=          30
 -3.03377994E+00 -1.37521342E+00  4.39164698E-02 -1.15014527E+00  2.51181048E+00
 -1.34017731E-02  1.17878604E+00 -1.17144594E+00 -1.28133608E-01  3.63656121E+00
  2.29452226E-02  5.63759387E-02 -9.82520014E-01  2.04999115E-01 -1.85052314E-02
  1.01540143E+00 -3.06118397E+00  9.26273244E-02  4.38954975E+00 -4.13487086E-02
  1.98279485E+00  3.41631205E+00  1.99099641E+00 -5.05015881E-01  4.96393252E+00
 -9.05561256E-01 -1.22191642E+00 -4.48954349E+00 -2.43223416E-01  7.71035653E-02
Num ILSW                                   I              100
ILSW                                       I   N=         100
           0           1           0           0           2           0
           0           0           0           0           0          -1
           0           0           0           0           0           0
           0           0           0           0           1           0
           1           0           0           0           0           0
           0           0      100000           0          -1           0
           0           0           0           0           0           0
           0           0           0           1           1           0
           0           0           1           0           0           0
           0           0           4          40           0           0
           0           0           0           0           0           0
           0           0           0           0           0           0
           0           0           0           0           0           0
           0           0           0           0           0           0
           0           0           0           0           0           0
           0           0           0           0           0           0
           0           0           0           0
Num RLSW                                   I               40
RLSW                                       R   N=          40
  1.00000000E+00  1.00000000E+00  1.00000000E+00  1.00000000E+00  1.00000000E+00
  0.00000000E+00  0.00000000E+00  1.00000000E+00  0.00000000E+00  0.00000000E+00
  0.00000000E+00  0.00000000E+00  1.00000000E+00  0.00000000E+00  0.00000000E+00
  0.00000000E+00  0.00000000E+00  1.00000000E+00  0.00000000E+00  0.00000000E+00
  0.00000000E+00  0.00000000E+00  1.00000000E+00  0.00000000E+00  0.00000000E+00
  0.00000000E+00  0.00000000E+00  1.00000000E+00  0.00000000E+00  0.00000000E+00
  0.00000000E+00  0.00000000E+00  0.00000000E+00  0.00000000E+00  0.00000000E+00
  0.00000000E+00  0.00000000E+00  0.00000000E+00  1.00000000E+00  1.00000000E+00
MxBond                                     I                4
NBond                                      I   N=          10
           2           1           3           4           3           1
           1           1           1           1
IBond                                      I   N=          40
           5          10           0           0           5           0
           0           0           4           5           6           0
           3           7           8           9           1           2
           3           0           3           0           0           0
           4           0           0           0           4           0
           0           0           4           0           0           0
           1           0           0           0
RBond                                      R   N=          40
  1.50000000E+00  1.00000000E+00  0.00000000E+00  0.00000000E+00  2.00000000E+00
  0.00000000E+00  0.00000000E+00  0.00000000E+00  1.00000000E+00  1.50000000E+00
  1.00000000E+00  0.00000000E+00  1.00000000E+00  1.00000000E+00  1.00000000E+00
  1.00000000E+00  1.50000000E+00  2.00000000E+00  1.50000000E+00  0.00000000E+00
  1.00000000E+00  0.00000000E+00  0.00000000E+00  0.00000000E+00  1.00000000E+00
  0.00000000E+00  0.00000000E+00  0.00000000E+00  1.00000000E+00  0.00000000E+00
  0.00000000E+00  0.00000000E+00  1.00000000E+00  0.00000000E+00  0.00000000E+00
  0.00000000E+00  1.00000000E+00  0.00000000E+00  0.00000000E+00  0.00000000E+00
Virial Ratio                               R      2.003278541290403E+00
SCF Energy                                 R     -2.828459964074169E+02
MP2 Energy                                 R     -2.836172037461810E+02
Total Energy                               R     -2.836172037461810E+02
Post-SCF wavefunction norm                 R      1.566980272027727E+00
RMS Force                                  R      7.627028032237254E-09
RMS Density                                R      2.472683319100203E-09
External E-field                           R   N=          35
  0.00000000E+00  0.00000000E+00  0.00000000E+00  0.00000000E+00  0.00000000E+00
  0.00000000E+00  0.00000000E+00  0.00000000E+00  0.00000000E+00  0.00000000E+00
  0.00000000E+00  0.00000000E+00  0.00000000E+00  0.00000000E+00  0.00000000E+00
  0.00000000E+00  0.00000000E+00  0.00000000E+00  0.00000000E+00  0.00000000E+00
  0.00000000E+00  0.00000000E+00  0.00000000E+00  0.00000000E+00  0.00000000E+00
  0.00000000E+00  0.00000000E+00  0.00000000E+00  0.00000000E+00  0.00000000E+00
  0.00000000E+00  0.00000000E+00  0.00000000E+00  0.00000000E+00  0.00000000E+00
IOpCl                                      I                0
IROHF                                      I                0
Alpha Orbital Energies                     R   N=          85
 -2.06150195E+01 -2.05344958E+01 -1.55971384E+01 -1.14107595E+01 -1.12664316E+01
 -1.45585149E+00 -1.34451918E+00 -1.23778288E+00 -9.64876661E-01 -8.15735403E-01
 -7.52827577E-01 -6.90222854E-01 -6.51059772E-01 -6.16489976E-01 -5.99073874E-01
 -5.89371980E-01 -5.53311767E-01 -4.84259911E-01 -4.51399066E-01 -4.01277369E-01
  2.22159026E-01  2.31502910E-01  2.41580150E-01  2.76200660E-01  3.11615086E-01
  3.25997641E-01  3.70749860E-01  4.43614294E-01  5.17923197E-01  5.93724274E-01
  7.16127737E-01  7.33137802E-01  7.75482694E-01  7.93964102E-01  8.22102814E-01
  9.12112458E-01  9.34399623E-01  1.00067274E+00  1.01840587E+00  1.06809614E+00
  1.09639585E+00  1.13446244E+00  1.16054283E+00  1.17667743E+00  1.20435074E+00
  1.21100263E+00  1.21642186E+00  1.29282338E+00  1.34571008E+00  1.38026214E+00
  1.46104819E+00  1.56873664E+00  1.58993925E+00  1.63365321E+00  1.68216080E+00
  1.76907238E+00  1.81172843E+00  1.99934654E+00  2.01628020E+00  2.04500180E+00
  2.10820622E+00  2.12347172E+00  2.14399117E+00  2.21518581E+00  2.30298532E+00
  2.35184602E+00  2.37540782E+00  2.44114923E+00  2.58136000E+00  2.63350496E+00
  2.66043523E+00  2.80171029E+00  2.80666079E+00  2.86206442E+00  2.95972274E+00
  3.03463746E+00  3.06895989E+00  3.27656564E+00  3.43000680E+00  3.51891159E+00
  4.24371457E+00  4.34037941E+00  4.59963521E+00  4.63779166E+00  4.81363430E+00
Alpha MO coefficients                      R   N=        7225
  9.94637019E-01  2.11885564E-02  3.18076652E-05  1.27696936E-03 -3.93938916E-06
  4.06751440E-03  1.24798151E-04 -6.66979233E-04 -1.77150566E-06 -4.16539015E-03
 -4.10253582E-03 -3.92685723E-03 -4.72807748E-06  7.38734934E-06  1.26751597E-06
 -1.85160798E-04  7.24651461E-05  2.30979778E-05  2.96899191E-05 -1.00392865E-06
 -5.60390330E-04  1.05265755E-04  1.53375911E-04 -2.76541084E-06  4.79668860E-05
 -1.09027215E-05  2.61411035E-05 -7.29281983E-05 -3.56378231E-07  2.44481451E-06
 -2.59466140E-05 -6.95681551E-05  2.34679500E-05 -8.54989652E-06 -5.15107638E-06
  8.67921332E-04 -5.17174396E-05  1.25600690E-04  2.77593608E-05 -1.33326452E-04
 -4.34340920E-05 -6.60669279E-05 -1.59340701E-06  4.54607098E-06  2.45562315E-06
  3.39109422E-07  6.84551805E-06  1.29226966E-05  5.29375033E-06 -1.84004448E-06
 -1.70992041E-04  7.09248277E-05 -6.74978731E-07  8.98289004E-06 -3.42927665E-06
  6.46923052E-06 -2.97850167E-06  1.15538716E-05  1.20116044E-06  3.87593412E-06
  4.67937503E-07  3.97201899E-04 -2.56006107E-04 -2.04264223E-04  6.34374310E-06
 -2.44588892E-04 -4.06485847E-04  6.72222838E-04  1.29340454E-05 -4.24056520E-05
  3.53927275E-06 -4.52424940E-05 -5.02557829E-05 -8.68251523E-07  2.75300632E-06
  1.79768630E-05 -1.47473001E-04  6.50236550E-06  8.58431570E-06  1.48666149E-05
  1.28735848E-05  4.28009754E-06  1.13420574E-05  4.31665820E-04 -2.77400149E-04
  1.88158114E-04 -7.09572086E-05 -8.95524159E-06 -3.76195639E-05 -9.74473259E-08
  3.32948063E-04  1.09141355E-04  6.61584603E-05 -2.02314809E-06  5.85306382E-05
 -1.25424108E-04 -8.00576017E-05 -5.09937290E-06 -4.87614483E-06  2.05795628E-07
  9.94696748E-01  2.10576969E-02  1.04928928E-04 -1.61234055E-03 -4.75922719E-06
  4.19693974E-03 -2.14234914E-05  1.18065498E-04  2.68665106E-06 -3.89893136E-03
 -3.59178714E-03 -4.05226198E-03 -1.65366429E-05 -3.88037936E-06 -3.95191053E-08
 -4.39650108E-06 -3.26659309E-05 -1.63798222E-05 -1.97587642E-05 -1.21067459E-06
  1.30118307E-04 -1.59953941E-05 -1.86080974E-05  2.38012501E-05  1.27482939E-04
 -8.95375378E-05 -3.59239445E-05  3.71777976E-05 -4.43706114E-06  7.08687454E-07
 -1.91984394E-06  1.19830168E-05  1.27086554E-05  1.78606422E-05  1.09401044E-05
  6.38489208E-05  7.51747646E-05  3.55506718E-05 -5.04984567E-05 -3.89028533E-05
 -2.01244116E-05  1.25908834E-06 -2.64809809E-05 -7.62388430E-06 -2.67533958E-07
  4.17891853E-07  5.53086379E-04  3.15885093E-06 -3.38432733E-05 -2.38052504E-07
 -5.05356808E-04  1.37830435E-04 -1.82726615E-04 -1.02807059E-05 -5.72247886E-05
 -8.46375696E-04 -2.98104337E-05  6.73722300E-05 -5.42848680E-07 -2.49516074E-06
  1.41388194E-05 -6.30797473E-05 -6.05087341E-07  1.23703103E-05  2.40971546E-05
 -1.40450334E-04 -1.24572691E-05 -3.50124229E-05 -1.84789333E-05 -2.35793828E-05
  2.94819384E-06 -5.21500912E-05 -3.19816310E-05 -3.21305677E-05  5.55607893E-08
  4.55523781E-05 -9.98727389E-05  2.22483284E-04 -2.75189044E-06 -3.17031537E-05
  4.81070439E-05 -5.28203047E-05 -7.92507557E-06 -1.89503279E-08 -2.65823795E-06
 -1.08729991E-05 -8.15830035E-05  4.88575155E-06  1.54182195E-05  3.34623541E-06
  4.32649561E-04 -3.14064890E-04 -1.25239465E-04 -1.36220179E-05 -4.91735483E-05
 -4.92966298E-06 -8.81945236E-05  8.69647915E-05 -2.82647291E-06  1.72451567E-06
  9.94941418E-01  2.53436471E-02 -1.69984916E-04  1.49783965E-04  3.27239254E-04
 -3.20994270E-03  4.02226021E-04 -7.63551659E-04 -2.67432868E-04 -3.49430918E-03
 -3.49187854E-03 -3.33555641E-03 -4.28206250E-05 -9.51685237E-06 -1.02361765E-05
 -1.75339058E-06  1.65414992E-04 -2.49958789E-04 -1.10738253E-04 -4.29465506E-06
  1.08090083E-03 -4.08141264E-04 -2.77003320E-05 -2.44724164E-05 -5.52755916E-05
 -1.04274525E-04 -5.08361715E-05 -1.91181372E-05 -3.41800482E-06 -1.61162114E-05
  1.56418561E-05  2.16651881E-04  1.92723098E-04 -1.08112990E-04 -1.67407788E-06
  1.47846923E-03  1.29348512E-03 -8.09189938E-04  5.83719423E-06 -1.44947630E-04
 -1.41165254E-04 -6.73742381E-05  9.16157157E-05  7.35916868E-06 -4.31021775E-06
  2.49609300E-04  2.12801575E-04 -8.82496674E-05 -3.05608147E-05 -7.64231706E-05
 -1.96959833E-04 -6.05777728E-05 -7.06744350E-05 -4.62934929E-05  1.12054010E-04
 -7.50441976E-05  6.35295736E-04  6.78920370E-05  1.61929911E-04 -5.32812883E-06
 -1.59696282E-03 -7.22824674E-04 -1.43143049E-03  3.28480527E-05 -3.70496618E-04
 -1.02220934E-04  4.90466814E-04 -4.64718711E-04  3.36551201E-05  1.47002513E-05
 -2.86634495E-04  4.95829577E-04  1.01139889E-05 -3.27310272E-04  5.65564464E-06
 -2.36099947E-03  3.26921624E-04  1.43072723E-03 -2.60314180E-05  1.15658956E-04
  1.15206422E-04  2.79069214E-04 -1.25402456E-04  2.43737205E-06  4.08606719E-06
 -3.08094188E-04  1.48224113E-04  1.31585768E-04  9.23231859E-06  8.01495742E-07
  1.35995032E-03 -8.07020249E-04 -6.07013862E-04 -4.10000767E-05 -6.07111813E-04
 -2.36947852E-04  2.24218763E-05  1.28661717E-04  6.77456187E-06 -3.48789630E-05
 -8.33032038E-05 -3.06192135E-04 -4.01271307E-05 -1.07989547E-04 -1.67833014E-05
  1.13273359E-03 -9.42196314E-04  3.22814607E-04  2.80547164E-05  2.29530126E-04
 -8.16442652E-06 -9.05173138E-05  4.04021450E-05  4.17843426E-05 -3.03646655E-05
  9.95834738E-01  2.52999484E-02 -3.92116960E-04 -5.65196126E-04 -7.20041734E-06
 -3.90035154E-03 -1.82549035E-03  1.86680575E-03  6.84691745E-05 -1.03910645E-03
 -6.16813606E-04 -2.39957187E-03 -1.00917566E-05 -5.33499938E-05  2.51940831E-06
 -1.42820686E-04  9.15013671E-06 -5.64680679E-05  3.81690906E-05 -1.57034459E-04
 -1.68207453E-04  3.21724672E-05  1.99029930E-04  2.81963359E-04  1.92226076E-04
 -7.91095798E-05 -3.53848982E-04 -2.44211003E-05 -3.68522673E-05  5.77674574E-06
  2.28352474E-03  5.26238438E-04  4.70122443E-04 -3.55928172E-05 -2.09195000E-04
 -1.87780066E-04 -2.19500032E-04  3.12108906E-05 -2.08311156E-06 -1.81125191E-06
  5.86419678E-05  2.60748833E-04  2.20166777E-05  2.61107511E-05 -1.57227270E-05
 -1.97923641E-03 -5.61503892E-04  3.87915373E-04  5.15187108E-05  1.63308116E-04
  1.46098187E-04  1.19082867E-04  7.40945920E-05  1.34429624E-05 -2.15693610E-07
 -1.92791142E-04  2.87039671E-04  5.37118795E-05  8.43538037E-05 -1.00280296E-05
  1.35890925E-03  4.27117332E-04 -1.20174499E-03  1.02325868E-04 -6.32706510E-04
 -1.89998382E-04  1.74199722E-05 -2.35940770E-04 -3.85881582E-05 -5.42751407E-05
  9.95760574E-01  2.80212537E-02 -7.81765063E-04 -3.84544239E-04 -2.24370324E-05
 -1.30184506E-02  2.94746445E-04  8.19412618E-06 -1.72964639E-04 -1.68498098E-03
 -1.76853581E-03 -1.75639460E-03  3.04760131E-05  9.10442811E-06  1.12744110E-05
  2.99199971E-05 -2.24775340E-04 -1.19360216E-05 -1.91654000E-05 -1.89480656E-05
  1.08365500E-03  2.33307463E-03  1.82290129E-03 -3.29132914E-05  7.19767026E-05
  5.89966276E-05 -9.57914800E-05 -8.03242781E-05  3.25902711E-06  1.25261446E-05
 -3.04860463E-04 -2.64462323E-04  1.11012586E-04  2.57824347E-03  1.67844848E-04
  2.30938068E-03  6.38112335E-05  2.35226426E-03 -8.11429733E-05  1.61746695E-04
 -1.59680321E-01  3.58809091E-01  2.84904444E-02  8.14637862E-02 -1.04489568E-03
  3.37551213E-01  1.53106262E-02  4.86781551E-02 -5.26172958E-04  1.71222897E-02
  1.45699433E-02 -1.85384844E-03  7.16758542E-04 -5.48735001E-04 -1.49737098E-04
 -9.34494651E-02  2.05051542E-01 -1.38854145E-03 -7.89163343E-02  3.93742178E-06
  1.81780132E-01 -5.04548982E-03 -3.27409741E-02  3.57442721E-05 -1.88948253E-03
  1.13933596E-02 -7.36885396E-04  1.08538440E-03  4.07937459E-05 -1.22058556E-05
 -4.28656052E-02  8.94527767E-02 -3.50064855E-02  1.76151467E-02  3.95021367E-03
  7.60681243E-02 -1.16132630E-02  8.74148656E-03  2.00307419E-03  6.87894379E-03
  3.76070724E-03 -1.86422255E-03 -4.30891845E-03 -5.47238596E-04  6.27089592E-05
 -8.89914596E-03  1.79791067E-02 -1.28653223E-02 -3.06744060E-03 -7.43378681E-04
 -2.14615839E-04  4.82333132E-03 -2.63307662E-03  1.56260401E-04  2.61190616E-03
  2.90620489E-04 -2.66625349E-04  1.24102217E-03  1.40804572E-04  1.27253229E-04
 -1.16770356E-01  2.30359325E-01 -6.05277009E-02  1.15774675E-02  1.66795380E-03
  3.29088186E-02  1.14888124E-02 -2.57223937E-03  2.04218524E-04  3.59221229E-03
  1.60085587E-02 -1.94192303E-02  1.06270270E-02 -7.70847981E-04 -3.43875538E-04
  1.92328906E-02 -4.70046646E-05  2.90506680E-03 -2.35389034E-04  5.05944077E-03
  2.64079347E-03  2.42713263E-03 -9.26259244E-04  8.50135968E-02 -5.37614463E-03
  1.27410608E-01 -2.85504753E-01  8.54892064E-03 -3.61881392E-02 -9.38714201E-05
 -2.98352676E-01  1.28057127E-03 -2.05521583E-02 -1.56852056E-04 -1.10010473E-02
 -4.87419128E-03  1.30860708E-03  7.47608822E-03  3.10270115E-04 -1.42832588E-04
 -1.65290261E-01  3.57880304E-01  1.83756975E-02 -1.03137772E-01 -5.73452912E-04
  3.58001089E-01  1.12030548E-02 -4.66691684E-02 -3.21449436E-04 -2.61730896E-03
  1.26539184E-02 -4.06999510E-03 -3.70561222E-03 -5.81335042E-05  1.10404496E-04
 -2.33426106E-02  4.87441303E-02 -1.54880676E-03  2.41868594E-02  1.82039309E-03
  4.35920858E-02  6.63219073E-03  1.85011980E-02  2.32642205E-04  3.67861507E-04
  4.17238557E-03 -1.29154703E-03 -3.23061065E-03  1.14757237E-04  3.58708089E-04
 -1.08850125E-02  1.88670572E-02 -1.24589298E-02 -1.49657076E-03 -1.13174167E-03
  3.71099360E-03 -1.04792008E-03  1.37145396E-04  2.61020552E-03  2.79201492E-03
  1.50861332E-04 -9.78632549E-04  7.44155772E-04  3.17249240E-04 -3.11467216E-05
 -5.76541580E-02  1.16807920E-01  6.89961029E-02  2.03682176E-01 -2.15609610E-03
  2.38301018E-02 -1.00918267E-02 -2.78189567E-02  5.08935574E-04 -2.25715751E-02
  2.36266111E-02 -9.18237555E-03 -1.89445205E-02  4.82323310E-04  5.42743945E-04
  6.11619848E-03 -1.67955823E-03  3.56045144E-03 -5.17320764E-04  6.83844678E-03
  5.63029110E-03  3.46663328E-03  1.96845790E-03 -7.30823393E-02  4.11817994E-03
  3.28330579E-02 -7.44499873E-02  3.70941255E-02 -2.53104947E-02 -1.07904436E-03
 -8.15994562E-02  1.70193699E-02 -1.74913102E-02 -2.79940998E-04 -6.14926222E-04
 -5.06209556E-03  1.43501838E-04  4.30380150E-03  2.94254429E-05 -7.56623539E-05
  6.25138132E-02 -1.36986914E-01  1.91146272E-02  2.67354403E-02 -6.38249871E-04
 -1.36698096E-01  1.38892657E-02  9.71315193E-03 -3.06986392E-04  4.52941585E-04
 -3.92692232E-03  1.22425805E-03 -3.57450647E-03  3.47889559E-06  7.18386683E-05
 -1.80795687E-01  3.72469804E-01 -1.16290345E-02  1.75233358E-02  1.65365019E-02
  4.04636223E-01 -5.18480595E-03  1.40767604E-02  1.02953920E-02  1.16526272E-02
  1.38625171E-02 -1.01390739E-02  1.50119587E-03  9.74292066E-05 -1.38039299E-03
 -7.38403755E-02  1.38775952E-01 -7.40784027E-02 -3.35977975E-02 -5.24620969E-03
  6.58011618E-02  5.83357950E-03 -8.57862554E-04  1.08666193E-03  1.39235390E-02
  1.83452167E-03 -2.89055826E-03  8.79499301E-03  1.18059190E-03  5.29029498E-04
 -3.01861257E-02  6.80490389E-02  1.39498821E-01 -1.31580332E-01 -4.23710540E-03
 -8.32677072E-04 -1.81942139E-02  2.23941831E-03 -2.46292893E-05  1.41730784E-02
 -9.22735772E-03 -2.40042198E-03 -1.71981472E-02 -5.27039159E-04  4.96414375E-04
  1.03930525E-01 -8.49210813E-04  3.01672565E-02  5.05164235E-04  3.21859874E-02
  3.71019823E-03  3.05910634E-02  2.26783833E-03 -3.49354480E-02 -5.27137918E-03
 -2.62583392E-02  6.17186475E-02 -1.27780818E-01  1.18903045E-02  4.35629055E-03
  7.10652010E-02 -6.85513572E-02  6.50971358E-03  2.46268129E-03  8.96417050E-04
  3.89377513E-03  4.17864257E-04 -1.31312780E-02  5.50108854E-05  4.58837982E-04
 -2.15347087E-02  4.58996987E-02 -1.07416248E-02  1.79808228E-02  1.17796400E-03
  6.64952764E-02 -5.06816296E-03  8.95952600E-03  9.52709044E-04  3.31043052E-04
 -1.47775383E-03 -1.19529559E-03  2.01766929E-03 -6.85577272E-05 -2.64805885E-04
  2.97500986E-02 -6.03981020E-02  2.33125318E-01  3.41213516E-02 -4.37394976E-04
 -9.91864403E-02  1.07528607E-01  2.14876406E-02 -1.64890601E-03  5.62302931E-03
 -3.06492290E-03  1.38916134E-03  1.31275704E-02  3.52871181E-03  1.49588395E-03
 -1.64127692E-01  3.13503398E-01  1.33697750E-02 -1.70683164E-03 -4.02569747E-03