72864                                                                   
Freq      RMP2-FC                                                     6-31G(d)            
Number of atoms                            I               17
Info1-9                                    I   N=           9
          29          27        1002           0           0         100
           6           2           1
Charge                                     I                0
Multiplicity                               I                1
Number of electrons                        I               80
Number of alpha electrons                  I               40
Number of beta electrons                   I               40
Number of basis functions                  I              168
Number of independent functions            I              168
Number of point charges in /Mol/           I                0
Number of translation vectors              I                0
Atomic numbers                             I   N=          17
          17           8           6           6           6           6
           6           6           6           6           1           1
           1           1           1           1           1
Nuclear charges                            R   N=          17
  1.70000000E+01  8.00000000E+00  6.00000000E+00  6.00000000E+00  6.00000000E+00
  6.00000000E+00  6.00000000E+00  6.00000000E+00  6.00000000E+00  6.00000000E+00
  1.00000000E+00  1.00000000E+00  1.00000000E+00  1.00000000E+00  1.00000000E+00
  1.00000000E+00  1.00000000E+00
Current cartesian coordinates              R   N=          51
  3.92472140E-01  4.24953715E+00  3.52691246E-01  4.28083841E+00  5.37925935E-01
 -1.65880612E+00  3.10329311E-01 -9.23661336E-01 -1.25772647E-01 -1.08275422E+00
  1.32909198E+00  5.70736889E-02 -1.02437102E+00 -3.21291507E+00 -2.51810176E-01
  3.14309962E+00 -9.62656583E-01 -3.01975277E-01 -3.71985611E+00  1.28129902E+00
  1.28326743E-01 -3.65652370E+00 -3.27006226E+00 -2.26997159E-01 -5.00550432E+00
 -1.01210619E+00 -3.90338745E-02  4.52220852E+00 -2.93603198E+00  1.24147198E+00
  1.82981220E-02 -4.97597555E+00 -4.04439559E-01 -4.74770363E+00  3.04981722E+00
  3.01524212E-01 -4.64639571E+00 -5.06485756E+00 -3.55711895E-01 -7.05935568E+00
 -1.02703201E+00 -2.61212762E-03  4.16951527E+00 -4.83539366E+00  5.01647411E-01
  3.88269510E+00 -2.90161142E+00  3.20682875E+00  6.54444438E+00 -2.54823156E+00
  1.13976134E+00
Force Field                                I                0
Int Atom Types                             I   N=          17
           0           0           0           0           0           0
           0           0           0           0           0           0
           0           0           0           0           0
MM charges                                 R   N=          17
  0.00000000E+00  0.00000000E+00  0.00000000E+00  0.00000000E+00  0.00000000E+00
  0.00000000E+00  0.00000000E+00  0.00000000E+00  0.00000000E+00  0.00000000E+00
  0.00000000E+00  0.00000000E+00  0.00000000E+00  0.00000000E+00  0.00000000E+00
  0.00000000E+00  0.00000000E+00
Integer atomic weights                     I   N=          17
          35          16          12          12          12          12
          12          12          12          12           1           1
           1           1           1           1           1
Real atomic weights                        R   N=          17
  3.49688527E+01  1.59949146E+01  1.20000000E+01  1.20000000E+01  1.20000000E+01
  1.20000000E+01  1.20000000E+01  1.20000000E+01  1.20000000E+01  1.20000000E+01
  1.00782504E+00  1.00782504E+00  1.00782504E+00  1.00782504E+00  1.00782504E+00
  1.00782504E+00  1.00782504E+00
Atom fragment info                         I   N=          17
           0           0           0           0           0           0
           0           0           0           0           0           0
           0           0           0           0           0
Atom residue num                           I   N=          17
           0           0           0           0           0           0
           0           0           0           0           0           0
           0           0           0           0           0
Nuclear spins                              I   N=          17
           3           0           0           0           0           0
           0           0           0           0           1           1
           1           1           1           1           1
Nuclear ZEff                               R   N=          17
 -1.42400000E+01 -5.60000000E+00 -3.60000000E+00 -3.60000000E+00 -3.60000000E+00
 -3.60000000E+00 -3.60000000E+00 -3.60000000E+00 -3.60000000E+00 -3.60000000E+00
 -1.00000000E+00 -1.00000000E+00 -1.00000000E+00 -1.00000000E+00 -1.00000000E+00
 -1.00000000E+00 -1.00000000E+00
Nuclear QMom                               R   N=          17
 -8.16500000E+00  0.00000000E+00  0.00000000E+00  0.00000000E+00  0.00000000E+00
  0.00000000E+00  0.00000000E+00  0.00000000E+00  0.00000000E+00  0.00000000E+00
  0.00000000E+00  0.00000000E+00  0.00000000E+00  0.00000000E+00  0.00000000E+00
  0.00000000E+00  0.00000000E+00
Nuclear GFac                               R   N=          17
  8.21874000E-01  0.00000000E+00  0.00000000E+00  0.00000000E+00  0.00000000E+00
  0.00000000E+00  0.00000000E+00  0.00000000E+00  0.00000000E+00  0.00000000E+00
  2.79284600E+00  2.79284600E+00  2.79284600E+00  2.79284600E+00  2.79284600E+00
  2.79284600E+00  2.79284600E+00
MicOpt                                     I   N=          17
          -1          -1          -1          -1          -1          -1
          -1          -1          -1          -1          -1          -1
          -1          -1          -1          -1          -1
Number of contracted shells                I               55
Number of primitive shells                 I              144
Pure/Cartesian d shells                    I                1
Pure/Cartesian f shells                    I                0
Highest angular momentum                   I                2
Largest degree of contraction              I                6
Shell types                                I   N=          55
           0          -1          -1          -1           2           0
          -1          -1           2           0          -1          -1
           2           0          -1          -1           2           0
          -1          -1           2           0          -1          -1
           2           0          -1          -1           2           0
          -1          -1           2           0          -1          -1
           2           0          -1          -1           2           0
           0           0           0           0           0           0
           0           0           0           0           0           0
           0
Number of primitives per shell             I   N=          55
           6           6           3           1           1           6
           3           1           1           6           3           1
           1           6           3           1           1           6
           3           1           1           6           3           1
           1           6           3           1           1           6
           3           1           1           6           3           1
           1           6           3           1           1           3
           1           3           1           3           1           3
           1           3           1           3           1           3
           1
Shell to atom map                          I   N=          55
           1           1           1           1           1           2
           2           2           2           3           3           3
           3           4           4           4           4           5
           5           5           5           6           6           6
           6           7           7           7           7           8
           8           8           8           9           9           9
           9          10          10          10          10          11
          11          12          12          13          13          14
          14          15          15          16          16          17
          17
Primitive exponents                        R   N=         144
  2.51801000E+04  3.78035000E+03  8.60474000E+02  2.42145000E+02  7.73349000E+01
  2.62470000E+01  4.91765000E+02  1.16984000E+02  3.74153000E+01  1.37834000E+01
  5.45215000E+00  2.22588000E+00  3.18649000E+00  1.14427000E+00  4.20377000E-01
  1.42657000E-01  7.50000000E-01  5.48467166E+03  8.25234946E+02  1.88046958E+02
  5.29645000E+01  1.68975704E+01  5.79963534E+00  1.55396162E+01  3.59993359E+00
  1.01376175E+00  2.70005823E-01  8.00000000E-01  3.04752488E+03  4.57369518E+02
  1.03948685E+02  2.92101553E+01  9.28666296E+00  3.16392696E+00  7.86827235E+00
  1.88128854E+00  5.44249258E-01  1.68714478E-01  8.00000000E-01  3.04752488E+03
  4.57369518E+02  1.03948685E+02  2.92101553E+01  9.28666296E+00  3.16392696E+00
  7.86827235E+00  1.88128854E+00  5.44249258E-01  1.68714478E-01  8.00000000E-01
  3.04752488E+03  4.57369518E+02  1.03948685E+02  2.92101553E+01  9.28666296E+00
  3.16392696E+00  7.86827235E+00  1.88128854E+00  5.44249258E-01  1.68714478E-01
  8.00000000E-01  3.04752488E+03  4.57369518E+02  1.03948685E+02  2.92101553E+01
  9.28666296E+00  3.16392696E+00  7.86827235E+00  1.88128854E+00  5.44249258E-01
  1.68714478E-01  8.00000000E-01  3.04752488E+03  4.57369518E+02  1.03948685E+02
  2.92101553E+01  9.28666296E+00  3.16392696E+00  7.86827235E+00  1.88128854E+00
  5.44249258E-01  1.68714478E-01  8.00000000E-01  3.04752488E+03  4.57369518E+02
  1.03948685E+02  2.92101553E+01  9.28666296E+00  3.16392696E+00  7.86827235E+00
  1.88128854E+00  5.44249258E-01  1.68714478E-01  8.00000000E-01  3.04752488E+03
  4.57369518E+02  1.03948685E+02  2.92101553E+01  9.28666296E+00  3.16392696E+00
  7.86827235E+00  1.88128854E+00  5.44249258E-01  1.68714478E-01  8.00000000E-01
  3.04752488E+03  4.57369518E+02  1.03948685E+02  2.92101553E+01  9.28666296E+00
  3.16392696E+00  7.86827235E+00  1.88128854E+00  5.44249258E-01  1.68714478E-01
  8.00000000E-01  1.87311370E+01  2.82539436E+00  6.40121692E-01  1.61277759E-01
  1.87311370E+01  2.82539436E+00  6.40121692E-01  1.61277759E-01  1.87311370E+01
  2.82539436E+00  6.40121692E-01  1.61277759E-01  1.87311370E+01  2.82539436E+00
  6.40121692E-01  1.61277759E-01  1.87311370E+01  2.82539436E+00  6.40121692E-01
  1.61277759E-01  1.87311370E+01  2.82539436E+00  6.40121692E-01  1.61277759E-01
  1.87311370E+01  2.82539436E+00  6.40121692E-01  1.61277759E-01
Contraction coefficients                   R   N=         144
  1.83295985E-03  1.40341988E-02  6.90973943E-02  2.37451980E-01  4.83033960E-01
  3.39855972E-01 -2.29739142E-03 -3.07137189E-02 -1.12528069E-01  4.50163278E-02
  5.89353363E-01  4.65206287E-01 -2.51828028E-01  6.15892514E-02  1.06018433E+00
  1.00000000E+00  1.00000000E+00  1.83107443E-03  1.39501722E-02  6.84450781E-02
  2.32714336E-01  4.70192898E-01  3.58520853E-01 -1.10777550E-01 -1.48026263E-01
  1.13076702E+00  1.00000000E+00  1.00000000E+00  1.83473713E-03  1.40373228E-02
  6.88426223E-02  2.32184443E-01  4.67941348E-01  3.62311985E-01 -1.19332420E-01
 -1.60854152E-01  1.14345644E+00  1.00000000E+00  1.00000000E+00  1.83473713E-03
  1.40373228E-02  6.88426223E-02  2.32184443E-01  4.67941348E-01  3.62311985E-01
 -1.19332420E-01 -1.60854152E-01  1.14345644E+00  1.00000000E+00  1.00000000E+00
  1.83473713E-03  1.40373228E-02  6.88426223E-02  2.32184443E-01  4.67941348E-01
  3.62311985E-01 -1.19332420E-01 -1.60854152E-01  1.14345644E+00  1.00000000E+00
  1.00000000E+00  1.83473713E-03  1.40373228E-02  6.88426223E-02  2.32184443E-01
  4.67941348E-01  3.62311985E-01 -1.19332420E-01 -1.60854152E-01  1.14345644E+00
  1.00000000E+00  1.00000000E+00  1.83473713E-03  1.40373228E-02  6.88426223E-02
  2.32184443E-01  4.67941348E-01  3.62311985E-01 -1.19332420E-01 -1.60854152E-01
  1.14345644E+00  1.00000000E+00  1.00000000E+00  1.83473713E-03  1.40373228E-02
  6.88426223E-02  2.32184443E-01  4.67941348E-01  3.62311985E-01 -1.19332420E-01
 -1.60854152E-01  1.14345644E+00  1.00000000E+00  1.00000000E+00  1.83473713E-03
  1.40373228E-02  6.88426223E-02  2.32184443E-01  4.67941348E-01  3.62311985E-01
 -1.19332420E-01 -1.60854152E-01  1.14345644E+00  1.00000000E+00  1.00000000E+00
  1.83473713E-03  1.40373228E-02  6.88426223E-02  2.32184443E-01  4.67941348E-01
  3.62311985E-01 -1.19332420E-01 -1.60854152E-01  1.14345644E+00  1.00000000E+00
  1.00000000E+00  3.34946043E-02  2.34726953E-01  8.13757326E-01  1.00000000E+00
  3.34946043E-02  2.34726953E-01  8.13757326E-01  1.00000000E+00  3.34946043E-02
  2.34726953E-01  8.13757326E-01  1.00000000E+00  3.34946043E-02  2.34726953E-01
  8.13757326E-01  1.00000000E+00  3.34946043E-02  2.34726953E-01  8.13757326E-01
  1.00000000E+00  3.34946043E-02  2.34726953E-01  8.13757326E-01  1.00000000E+00
  3.34946043E-02  2.34726953E-01  8.13757326E-01  1.00000000E+00
P(S=P) Contraction coefficients            R   N=         144
  0.00000000E+00  0.00000000E+00  0.00000000E+00  0.00000000E+00  0.00000000E+00
  0.00000000E+00  3.98940088E-03  3.03177067E-02  1.29880029E-01  3.27951072E-01
  4.53527100E-01  2.52154056E-01 -1.42993147E-02  3.23572333E-01  7.43507765E-01
  1.00000000E+00  0.00000000E+00  0.00000000E+00  0.00000000E+00  0.00000000E+00
  0.00000000E+00  0.00000000E+00  0.00000000E+00  7.08742682E-02  3.39752839E-01
  7.27158577E-01  1.00000000E+00  0.00000000E+00  0.00000000E+00  0.00000000E+00
  0.00000000E+00  0.00000000E+00  0.00000000E+00  0.00000000E+00  6.89990666E-02
  3.16423961E-01  7.44308291E-01  1.00000000E+00  0.00000000E+00  0.00000000E+00
  0.00000000E+00  0.00000000E+00  0.00000000E+00  0.00000000E+00  0.00000000E+00
  6.89990666E-02  3.16423961E-01  7.44308291E-01  1.00000000E+00  0.00000000E+00
  0.00000000E+00  0.00000000E+00  0.00000000E+00  0.00000000E+00  0.00000000E+00
  0.00000000E+00  6.89990666E-02  3.16423961E-01  7.44308291E-01  1.00000000E+00
  0.00000000E+00  0.00000000E+00  0.00000000E+00  0.00000000E+00  0.00000000E+00
  0.00000000E+00  0.00000000E+00  6.89990666E-02  3.16423961E-01  7.44308291E-01
  1.00000000E+00  0.00000000E+00  0.00000000E+00  0.00000000E+00  0.00000000E+00
  0.00000000E+00  0.00000000E+00  0.00000000E+00  6.89990666E-02  3.16423961E-01
  7.44308291E-01  1.00000000E+00  0.00000000E+00  0.00000000E+00  0.00000000E+00
  0.00000000E+00  0.00000000E+00  0.00000000E+00  0.00000000E+00  6.89990666E-02
  3.16423961E-01  7.44308291E-01  1.00000000E+00  0.00000000E+00  0.00000000E+00
  0.00000000E+00  0.00000000E+00  0.00000000E+00  0.00000000E+00  0.00000000E+00
  6.89990666E-02  3.16423961E-01  7.44308291E-01  1.00000000E+00  0.00000000E+00
  0.00000000E+00  0.00000000E+00  0.00000000E+00  0.00000000E+00  0.00000000E+00
  0.00000000E+00  6.89990666E-02  3.16423961E-01  7.44308291E-01  1.00000000E+00
  0.00000000E+00  0.00000000E+00  0.00000000E+00  0.00000000E+00  0.00000000E+00
  0.00000000E+00  0.00000000E+00  0.00000000E+00  0.00000000E+00  0.00000000E+00
  0.00000000E+00  0.00000000E+00  0.00000000E+00  0.00000000E+00  0.00000000E+00
  0.00000000E+00  0.00000000E+00  0.00000000E+00  0.00000000E+00  0.00000000E+00
  0.00000000E+00  0.00000000E+00  0.00000000E+00  0.00000000E+00  0.00000000E+00
  0.00000000E+00  0.00000000E+00  0.00000000E+00  0.00000000E+00
Coordinates of each shell                  R   N=         165
  3.92472140E-01  4.24953715E+00  3.52691246E-01  3.92472140E-01  4.24953715E+00
  3.52691246E-01  3.92472140E-01  4.24953715E+00  3.52691246E-01  3.92472140E-01
  4.24953715E+00  3.52691246E-01  3.92472140E-01  4.24953715E+00  3.52691246E-01
  4.28083841E+00  5.37925935E-01 -1.65880612E+00  4.28083841E+00  5.37925935E-01
 -1.65880612E+00  4.28083841E+00  5.37925935E-01 -1.65880612E+00  4.28083841E+00
  5.37925935E-01 -1.65880612E+00  3.10329311E-01 -9.23661336E-01 -1.25772647E-01
  3.10329311E-01 -9.23661336E-01 -1.25772647E-01  3.10329311E-01 -9.23661336E-01
 -1.25772647E-01  3.10329311E-01 -9.23661336E-01 -1.25772647E-01 -1.08275422E+00
  1.32909198E+00  5.70736889E-02 -1.08275422E+00  1.32909198E+00  5.70736889E-02
 -1.08275422E+00  1.32909198E+00  5.70736889E-02 -1.08275422E+00  1.32909198E+00
  5.70736889E-02 -1.02437102E+00 -3.21291507E+00 -2.51810176E-01 -1.02437102E+00
 -3.21291507E+00 -2.51810176E-01 -1.02437102E+00 -3.21291507E+00 -2.51810176E-01
 -1.02437102E+00 -3.21291507E+00 -2.51810176E-01  3.14309962E+00 -9.62656583E-01
 -3.01975277E-01  3.14309962E+00 -9.62656583E-01 -3.01975277E-01  3.14309962E+00
 -9.62656583E-01 -3.01975277E-01  3.14309962E+00 -9.62656583E-01 -3.01975277E-01
 -3.71985611E+00  1.28129902E+00  1.28326743E-01 -3.71985611E+00  1.28129902E+00
  1.28326743E-01 -3.71985611E+00  1.28129902E+00  1.28326743E-01 -3.71985611E+00
  1.28129902E+00  1.28326743E-01 -3.65652370E+00 -3.27006226E+00 -2.26997159E-01
 -3.65652370E+00 -3.27006226E+00 -2.26997159E-01 -3.65652370E+00 -3.27006226E+00
 -2.26997159E-01 -3.65652370E+00 -3.27006226E+00 -2.26997159E-01 -5.00550432E+00
 -1.01210619E+00 -3.90338745E-02 -5.00550432E+00 -1.01210619E+00 -3.90338745E-02
 -5.00550432E+00 -1.01210619E+00 -3.90338745E-02 -5.00550432E+00 -1.01210619E+00
 -3.90338745E-02  4.52220852E+00 -2.93603198E+00  1.24147198E+00  4.52220852E+00
 -2.93603198E+00  1.24147198E+00  4.52220852E+00 -2.93603198E+00  1.24147198E+00
  4.52220852E+00 -2.93603198E+00  1.24147198E+00  1.82981220E-02 -4.97597555E+00
 -4.04439559E-01  1.82981220E-02 -4.97597555E+00 -4.04439559E-01 -4.74770363E+00
  3.04981722E+00  3.01524212E-01 -4.74770363E+00  3.04981722E+00  3.01524212E-01
 -4.64639571E+00 -5.06485756E+00 -3.55711895E-01 -4.64639571E+00 -5.06485756E+00
 -3.55711895E-01 -7.05935568E+00 -1.02703201E+00 -2.61212762E-03 -7.05935568E+00
 -1.02703201E+00 -2.61212762E-03  4.16951527E+00 -4.83539366E+00  5.01647411E-01
  4.16951527E+00 -4.83539366E+00  5.01647411E-01  3.88269510E+00 -2.90161142E+00
  3.20682875E+00  3.88269510E+00 -2.90161142E+00  3.20682875E+00  6.54444438E+00
 -2.54823156E+00  1.13976134E+00  6.54444438E+00 -2.54823156E+00  1.13976134E+00
Constraint Structure                       R   N=          51
  3.92472140E-01  4.24953715E+00  3.52691246E-01  4.28083841E+00  5.37925935E-01
 -1.65880612E+00  3.10329311E-01 -9.23661336E-01 -1.25772647E-01 -1.08275422E+00
  1.32909198E+00  5.70736889E-02 -1.02437102E+00 -3.21291507E+00 -2.51810176E-01
  3.14309962E+00 -9.62656583E-01 -3.01975277E-01 -3.71985611E+00  1.28129902E+00
  1.28326743E-01 -3.65652370E+00 -3.27006226E+00 -2.26997159E-01 -5.00550432E+00
 -1.01210619E+00 -3.90338745E-02  4.52220852E+00 -2.93603198E+00  1.24147198E+00
  1.82981220E-02 -4.97597555E+00 -4.04439559E-01 -4.74770363E+00  3.04981722E+00
  3.01524212E-01 -4.64639571E+00 -5.06485756E+00 -3.55711895E-01 -7.05935568E+00
 -1.02703201E+00 -2.61212762E-03  4.16951527E+00 -4.83539366E+00  5.01647411E-01
  3.88269510E+00 -2.90161142E+00  3.20682875E+00  6.54444438E+00 -2.54823156E+00
  1.13976134E+00
Num ILSW                                   I              100
ILSW                                       I   N=         100
           0           1           0           1           2           0
           0           0           0           0           0          -1
           0           0           0           0           0           0
           0           0           0           0           1           0
           1           0           0           0           0           0
           0           0      100000           0          -1           0
           0           0           0           0           0           0
           0           0           0           1           1           0
           0           0           1           0           0           0
           0           0           4          40           0           0
           0           0           0           0           0           0
           0           0           0           0           0           0
           0           0           0           0           0           0
           0           0           0           0           0           0
           0           0           0           0           0           0
           0           0           0           0           0           0
           0           0           0           0
Num RLSW                                   I               40
RLSW                                       R   N=          40
  1.00000000E+00  1.00000000E+00  1.00000000E+00  1.00000000E+00  1.00000000E+00
  0.00000000E+00  0.00000000E+00  1.00000000E+00  0.00000000E+00  0.00000000E+00
  0.00000000E+00  0.00000000E+00  1.00000000E+00  0.00000000E+00  0.00000000E+00
  0.00000000E+00  0.00000000E+00  1.00000000E+00  0.00000000E+00  0.00000000E+00
  0.00000000E+00  0.00000000E+00  1.00000000E+00  0.00000000E+00  0.00000000E+00
  0.00000000E+00  0.00000000E+00  1.00000000E+00  0.00000000E+00  0.00000000E+00
  0.00000000E+00  0.00000000E+00  0.00000000E+00  0.00000000E+00  0.00000000E+00
  0.00000000E+00  0.00000000E+00  0.00000000E+00  1.00000000E+00  1.00000000E+00
MxBond                                     I                4
NBond                                      I   N=          17
           1           1           3           3           3           3
           3           3           3           4           1           1
           1           1           1           1           1
IBond                                      I   N=          68
           4           0           0           0           6           0
           0           0           4           5           6           0
           1           3           7           0           3           8
          11           0           2           3          10           0
           4           9          12           0           5           9
          13           0           7           8          14           0
           6          15          16          17           5           0
           0           0           7           0           0           0
           8           0           0           0           9           0
           0           0          10           0           0           0
          10           0           0           0          10           0
           0           0
RBond                                      R   N=          68
  1.00000000E+00  0.00000000E+00  0.00000000E+00  0.00000000E+00  2.00000000E+00
  0.00000000E+00  0.00000000E+00  0.00000000E+00  1.50000000E+00  1.50000000E+00
  1.00000000E+00  0.00000000E+00  1.00000000E+00  1.50000000E+00  1.50000000E+00
  0.00000000E+00  1.50000000E+00  1.50000000E+00  1.00000000E+00  0.00000000E+00
  2.00000000E+00  1.00000000E+00  1.00000000E+00  0.00000000E+00  1.50000000E+00
  1.50000000E+00  1.00000000E+00  0.00000000E+00  1.50000000E+00  1.50000000E+00
  1.00000000E+00  0.00000000E+00  1.50000000E+00  1.50000000E+00  1.00000000E+00
  0.00000000E+00  1.00000000E+00  1.00000000E+00  1.00000000E+00  1.00000000E+00
  1.00000000E+00  0.00000000E+00  0.00000000E+00  0.00000000E+00  1.00000000E+00
  0.00000000E+00  0.00000000E+00  0.00000000E+00  1.00000000E+00  0.00000000E+00
  0.00000000E+00  0.00000000E+00  1.00000000E+00  0.00000000E+00  0.00000000E+00
  0.00000000E+00  1.00000000E+00  0.00000000E+00  0.00000000E+00  0.00000000E+00
  1.00000000E+00  0.00000000E+00  0.00000000E+00  0.00000000E+00  1.00000000E+00
  0.00000000E+00  0.00000000E+00  0.00000000E+00
Virial Ratio                               R      2.001316688622818E+00
SCF Energy                                 R     -8.413591158645888E+02
MP2 Energy                                 R     -8.426848955538626E+02
Total Energy                               R     -8.426848955538626E+02
Post-SCF wavefunction norm                 R      1.716368775998491E+00
RMS Force                                  R      5.263591870605962E-08
RMS Density                                R      2.677471320115072E-09
External E-field                           R   N=          35
  0.00000000E+00  0.00000000E+00  0.00000000E+00  0.00000000E+00  0.00000000E+00
  0.00000000E+00  0.00000000E+00  0.00000000E+00  0.00000000E+00  0.00000000E+00
  0.00000000E+00  0.00000000E+00  0.00000000E+00  0.00000000E+00  0.00000000E+00
  0.00000000E+00  0.00000000E+00  0.00000000E+00  0.00000000E+00  0.00000000E+00
  0.00000000E+00  0.00000000E+00  0.00000000E+00  0.00000000E+00  0.00000000E+00
  0.00000000E+00  0.00000000E+00  0.00000000E+00  0.00000000E+00  0.00000000E+00
  0.00000000E+00  0.00000000E+00  0.00000000E+00  0.00000000E+00  0.00000000E+00
IOpCl                                      I                0
IROHF                                      I                0
Alpha Orbital Energies                     R   N=         168
 -1.04824790E+02 -2.05598359E+01 -1.13455202E+01 -1.13191063E+01 -1.12695454E+01
 -1.12671639E+01 -1.12636064E+01 -1.12603772E+01 -1.12581434E+01 -1.12413783E+01
 -1.05582058E+01 -8.02763512E+00 -8.02421500E+00 -8.02407014E+00 -1.38084593E+00
 -1.19683530E+00 -1.12422787E+00 -1.06365530E+00 -1.01056468E+00 -9.97352792E-01
 -8.73154939E-01 -8.35051040E-01 -7.68704089E-01 -7.00992713E-01 -6.65043165E-01
 -6.60338765E-01 -6.31860653E-01 -6.17779811E-01 -6.01451945E-01 -5.91203785E-01
 -5.62020313E-01 -5.48144374E-01 -5.32940449E-01 -5.21418207E-01 -4.92421321E-01
 -4.68992114E-01 -4.53994428E-01 -4.14428706E-01 -3.57091635E-01 -3.40472033E-01
  8.94174649E-02  1.17930355E-01  1.77872373E-01  1.96120356E-01  2.33409640E-01
  2.56901569E-01  2.86775241E-01  2.93076141E-01  3.06538690E-01  3.15374099E-01
  3.36327459E-01  3.66865479E-01  3.88880554E-01  4.33111743E-01  4.43792602E-01
  4.52966257E-01  4.77400700E-01  5.25798798E-01  5.40531217E-01  5.77293289E-01
  6.19628948E-01  6.24152786E-01  6.44056826E-01  6.84912008E-01  7.13712076E-01
  7.28955027E-01  7.41888854E-01  7.56016518E-01  7.75723080E-01  7.99454293E-01
  8.00669228E-01  8.06312934E-01  8.14515529E-01  8.22374333E-01  8.29662288E-01
  8.40445032E-01  8.80944005E-01  8.98024950E-01  9.48349332E-01  9.64076619E-01
  9.85048468E-01  9.98288994E-01  1.00917588E+00  1.05757496E+00  1.07305508E+00
  1.08627918E+00  1.09222930E+00  1.10320323E+00  1.13010311E+00  1.13957499E+00
  1.15237569E+00  1.15431296E+00  1.16739902E+00  1.18343554E+00  1.20975170E+00
  1.22033416E+00  1.22644515E+00  1.25179173E+00  1.27397721E+00  1.29747430E+00
  1.32331286E+00  1.35780548E+00  1.36245678E+00  1.37712680E+00  1.41271843E+00
  1.43717010E+00  1.46962991E+00  1.47811976E+00  1.58971826E+00  1.61436345E+00
  1.66708287E+00  1.68037213E+00  1.69865965E+00  1.72987455E+00  1.74804271E+00
  1.75638844E+00  1.81734593E+00  1.83640576E+00  1.93233179E+00  1.97353106E+00
  2.03944270E+00  2.05669308E+00  2.08284685E+00  2.11179034E+00  2.13531157E+00
  2.16320794E+00  2.20562048E+00  2.21146522E+00  2.27564789E+00  2.29705696E+00
  2.35346297E+00  2.36053152E+00  2.36594133E+00  2.43397959E+00  2.43679701E+00
  2.44783255E+00  2.49650975E+00  2.53166782E+00  2.57227858E+00  2.58767254E+00
  2.60669220E+00  2.62987589E+00  2.68209602E+00  2.74398638E+00  2.86483764E+00
  2.88229681E+00  2.89596079E+00  2.95644672E+00  2.98238762E+00  3.02197044E+00
  3.07422211E+00  3.08228554E+00  3.09815608E+00  3.18514618E+00  3.32400960E+00
  3.33627424E+00  3.49023832E+00  3.73947512E+00  4.38588441E+00  4.46153904E+00
  4.50243751E+00  4.52236279E+00  4.59876085E+00  4.69020434E+00  4.72379794E+00
  4.79297108E+00  4.87717392E+00  5.11838932E+00
Alpha MO coefficients                      R   N=       28224
  9.96116759E-01  1.46430180E-02 -2.80689338E-05 -5.52506453E-05 -4.81656329E-06
 -1.77393894E-02  2.37814234E-05  5.72247793E-05  7.92968283E-06  1.44791178E-03
 -7.42923807E-06 -5.59722697E-05 -9.50454356E-06  6.25821201E-03  6.26637395E-03
  6.25637971E-03  5.25295877E-07 -1.15383060E-07  1.40230600E-06  2.69306385E-06
  1.31117213E-05 -6.73882894E-06  7.77204340E-06 -1.10929070E-06 -2.07706691E-05
  4.11510171E-05 -4.80440907E-05  1.60007506E-05  2.49544943E-06  7.39472191E-06
  1.63177810E-05  8.07140256E-06  4.62943489E-06 -9.82435188E-06 -2.42176221E-07
  1.25063600E-05  5.36743382E-06 -1.04531595E-05  1.58342513E-06  8.40064904E-05
 -2.40066383E-04  9.40442814E-05  1.43064759E-05  1.01532848E-05 -2.79926599E-05
 -5.80501116E-06 -1.08308119E-05  2.55309182E-06 -2.66847590E-06  9.03079365E-06
  1.02439370E-04  1.29272843E-05  3.12246794E-05  3.52411619E-06 -3.15332948E-04
 -8.74363071E-06  2.39469564E-04  2.25960565E-05  1.79244370E-05 -3.15966379E-05
  2.51386758E-06 -3.13972207E-05 -2.95551114E-06 -2.73095231E-06 -1.16533005E-06
 -5.19592253E-06  2.43921578E-06 -4.55858710E-06 -7.71333671E-07 -3.67206000E-05
  5.85608213E-05 -7.77159819E-06 -2.18990868E-08  5.97009953E-06 -2.23200611E-06
 -4.91895625E-06  8.09288194E-06  4.36747041E-07  1.33996663E-07  1.55609252E-06
  1.24948766E-05  2.26369311E-07 -4.36391189E-06  8.66504017E-06  2.78503912E-05
 -1.48625412E-04  7.26000610E-06 -3.69122351E-05 -1.99433231E-06 -4.37642267E-06
  1.60904261E-06  2.69389924E-06  5.09843912E-06  6.15577421E-07 -1.96294833E-06
  5.97046531E-06 -2.27033714E-06 -2.70485697E-06 -3.93627650E-08  1.21756872E-04
 -5.40895372E-05 -1.58212557E-04 -1.51524530E-05 -2.10651630E-05 -4.89165962E-06
 -9.68785031E-06 -2.05773259E-05 -2.03781006E-06  1.56994116E-06 -4.06682364E-08
  2.14222503E-06 -1.32262228E-06 -5.05997922E-07  3.59005517E-07  2.73218112E-05
  2.87604988E-05 -1.11710552E-05 -2.48897292E-06 -2.69887435E-06 -1.99754028E-06
 -1.15958226E-07  3.26449230E-07 -1.23614467E-07 -2.79851482E-07 -3.70018139E-07
  4.58051335E-07 -5.27506099E-06 -3.57168260E-06  8.95946525E-08 -1.19000560E-04
 -1.29223562E-05 -5.99617989E-05 -4.19161972E-06 -3.59991897E-06  4.00188406E-06