148_EMSulfoxide Gaussian SP Calculation on g2-node38.bme.utexas.edu     
Freq      RMP2-FC                                                     6-31G(d)            
Number of atoms                            I               13
Info1-9                                    I   N=           9
          24          23        1002           0           0         100
           6           2           1
Charge                                     I                0
Multiplicity                               I                1
Number of electrons                        I               50
Number of alpha electrons                  I               25
Number of beta electrons                   I               25
Number of basis functions                  I               95
Number of independent functions            I               95
Number of point charges in /Mol/           I                0
Number of translation vectors              I                0
Atomic numbers                             I   N=          13
          16           8           6           6           6           1
           1           1           1           1           1           1
           1
Nuclear charges                            R   N=          13
  1.60000000E+01  8.00000000E+00  6.00000000E+00  6.00000000E+00  6.00000000E+00
  1.00000000E+00  1.00000000E+00  1.00000000E+00  1.00000000E+00  1.00000000E+00
  1.00000000E+00  1.00000000E+00  1.00000000E+00
Current cartesian coordinates              R   N=          39
  8.61380247E-01  4.27411122E-01 -8.27878328E-01  8.72597969E-01  2.83442518E+00
  7.19695841E-01 -1.70189756E+00 -1.51750401E+00  3.73955172E-01 -4.19612914E+00
 -1.32623266E-01  7.58784205E-03  3.39332449E+00 -1.55339766E+00  3.34293620E-01
 -1.65567204E+00 -3.32276069E+00 -6.39505764E-01 -1.33681822E+00 -1.85796523E+00
  2.38321561E+00 -4.12547079E+00  1.69545939E+00  9.61891266E-01 -4.58554482E+00
  1.89429949E-01 -1.99616176E+00 -5.75137506E+00 -1.23561990E+00  8.00290879E-01
  5.17672837E+00 -6.66491795E-01 -2.01971904E-01  3.26832837E+00 -3.43550517E+00
 -5.08075539E-01  3.27516974E+00 -1.65937632E+00  2.39378393E+00
Force Field                                I                0
Int Atom Types                             I   N=          13
           0           0           0           0           0           0
           0           0           0           0           0           0
           0
MM charges                                 R   N=          13
  0.00000000E+00  0.00000000E+00  0.00000000E+00  0.00000000E+00  0.00000000E+00
  0.00000000E+00  0.00000000E+00  0.00000000E+00  0.00000000E+00  0.00000000E+00
  0.00000000E+00  0.00000000E+00  0.00000000E+00
Integer atomic weights                     I   N=          13
          32          16          12          12          12           1
           1           1           1           1           1           1
           1
Real atomic weights                        R   N=          13
  3.19720718E+01  1.59949146E+01  1.20000000E+01  1.20000000E+01  1.20000000E+01
  1.00782504E+00  1.00782504E+00  1.00782504E+00  1.00782504E+00  1.00782504E+00
  1.00782504E+00  1.00782504E+00  1.00782504E+00
Atom fragment info                         I   N=          13
           0           0           0           0           0           0
           0           0           0           0           0           0
           0
Atom residue num                           I   N=          13
           0           0           0           0           0           0
           0           0           0           0           0           0
           0
Nuclear spins                              I   N=          13
           0           0           0           0           0           1
           1           1           1           1           1           1
           1
Nuclear ZEff                               R   N=          13
 -1.36000000E+01 -5.60000000E+00 -3.60000000E+00 -3.60000000E+00 -3.60000000E+00
 -1.00000000E+00 -1.00000000E+00 -1.00000000E+00 -1.00000000E+00 -1.00000000E+00
 -1.00000000E+00 -1.00000000E+00 -1.00000000E+00
Nuclear QMom                               R   N=          13
  0.00000000E+00  0.00000000E+00  0.00000000E+00  0.00000000E+00  0.00000000E+00
  0.00000000E+00  0.00000000E+00  0.00000000E+00  0.00000000E+00  0.00000000E+00
  0.00000000E+00  0.00000000E+00  0.00000000E+00
Nuclear GFac                               R   N=          13
  0.00000000E+00  0.00000000E+00  0.00000000E+00  0.00000000E+00  0.00000000E+00
  2.79284600E+00  2.79284600E+00  2.79284600E+00  2.79284600E+00  2.79284600E+00
  2.79284600E+00  2.79284600E+00  2.79284600E+00
MicOpt                                     I   N=          13
          -1          -1          -1          -1          -1          -1
          -1          -1          -1          -1          -1          -1
          -1
Number of contracted shells                I               37
Number of primitive shells                 I               93
Pure/Cartesian d shells                    I                1
Pure/Cartesian f shells                    I                0
Highest angular momentum                   I                2
Largest degree of contraction              I                6
Shell types                                I   N=          37
           0          -1          -1          -1           2           0
          -1          -1           2           0          -1          -1
           2           0          -1          -1           2           0
          -1          -1           2           0           0           0
           0           0           0           0           0           0
           0           0           0           0           0           0
           0
Number of primitives per shell             I   N=          37
           6           6           3           1           1           6
           3           1           1           6           3           1
           1           6           3           1           1           6
           3           1           1           3           1           3
           1           3           1           3           1           3
           1           3           1           3           1           3
           1
Shell to atom map                          I   N=          37
           1           1           1           1           1           2
           2           2           2           3           3           3
           3           4           4           4           4           5
           5           5           5           6           6           7
           7           8           8           9           9          10
          10          11          11          12          12          13
          13
Primitive exponents                        R   N=          93
  2.19171000E+04  3.30149000E+03  7.54146000E+02  2.12711000E+02  6.79896000E+01
  2.30515000E+01  4.23735000E+02  1.00710000E+02  3.21599000E+01  1.18079000E+01
  4.63110000E+00  1.87025000E+00  2.61584000E+00  9.22167000E-01  3.41287000E-01
  1.17167000E-01  6.50000000E-01  5.48467166E+03  8.25234946E+02  1.88046958E+02
  5.29645000E+01  1.68975704E+01  5.79963534E+00  1.55396162E+01  3.59993359E+00
  1.01376175E+00  2.70005823E-01  8.00000000E-01  3.04752488E+03  4.57369518E+02
  1.03948685E+02  2.92101553E+01  9.28666296E+00  3.16392696E+00  7.86827235E+00
  1.88128854E+00  5.44249258E-01  1.68714478E-01  8.00000000E-01  3.04752488E+03
  4.57369518E+02  1.03948685E+02  2.92101553E+01  9.28666296E+00  3.16392696E+00
  7.86827235E+00  1.88128854E+00  5.44249258E-01  1.68714478E-01  8.00000000E-01
  3.04752488E+03  4.57369518E+02  1.03948685E+02  2.92101553E+01  9.28666296E+00
  3.16392696E+00  7.86827235E+00  1.88128854E+00  5.44249258E-01  1.68714478E-01
  8.00000000E-01  1.87311370E+01  2.82539436E+00  6.40121692E-01  1.61277759E-01
  1.87311370E+01  2.82539436E+00  6.40121692E-01  1.61277759E-01  1.87311370E+01
  2.82539436E+00  6.40121692E-01  1.61277759E-01  1.87311370E+01  2.82539436E+00
  6.40121692E-01  1.61277759E-01  1.87311370E+01  2.82539436E+00  6.40121692E-01
  1.61277759E-01  1.87311370E+01  2.82539436E+00  6.40121692E-01  1.61277759E-01
  1.87311370E+01  2.82539436E+00  6.40121692E-01  1.61277759E-01  1.87311370E+01
  2.82539436E+00  6.40121692E-01  1.61277759E-01
Contraction coefficients                   R   N=          93
  1.86924085E-03  1.42303065E-02  6.96962317E-02  2.38487108E-01  4.83307220E-01
  3.38074154E-01 -2.37677050E-03 -3.16930067E-02 -1.13317024E-01  5.60900118E-02
  5.92255124E-01  4.55006095E-01 -2.50373114E-01  6.69567631E-02  1.05450627E+00
  1.00000000E+00  1.00000000E+00  1.83107443E-03  1.39501722E-02  6.84450781E-02
  2.32714336E-01  4.70192898E-01  3.58520853E-01 -1.10777550E-01 -1.48026263E-01
  1.13076702E+00  1.00000000E+00  1.00000000E+00  1.83473713E-03  1.40373228E-02
  6.88426223E-02  2.32184443E-01  4.67941348E-01  3.62311985E-01 -1.19332420E-01
 -1.60854152E-01  1.14345644E+00  1.00000000E+00  1.00000000E+00  1.83473713E-03
  1.40373228E-02  6.88426223E-02  2.32184443E-01  4.67941348E-01  3.62311985E-01
 -1.19332420E-01 -1.60854152E-01  1.14345644E+00  1.00000000E+00  1.00000000E+00
  1.83473713E-03  1.40373228E-02  6.88426223E-02  2.32184443E-01  4.67941348E-01
  3.62311985E-01 -1.19332420E-01 -1.60854152E-01  1.14345644E+00  1.00000000E+00
  1.00000000E+00  3.34946043E-02  2.34726953E-01  8.13757326E-01  1.00000000E+00
  3.34946043E-02  2.34726953E-01  8.13757326E-01  1.00000000E+00  3.34946043E-02
  2.34726953E-01  8.13757326E-01  1.00000000E+00  3.34946043E-02  2.34726953E-01
  8.13757326E-01  1.00000000E+00  3.34946043E-02  2.34726953E-01  8.13757326E-01
  1.00000000E+00  3.34946043E-02  2.34726953E-01  8.13757326E-01  1.00000000E+00
  3.34946043E-02  2.34726953E-01  8.13757326E-01  1.00000000E+00  3.34946043E-02
  2.34726953E-01  8.13757326E-01  1.00000000E+00
P(S=P) Contraction coefficients            R   N=          93
  0.00000000E+00  0.00000000E+00  0.00000000E+00  0.00000000E+00  0.00000000E+00
  0.00000000E+00  4.06100998E-03  3.06812999E-02  1.30451999E-01  3.27204999E-01
  4.52850998E-01  2.56041999E-01 -1.45104895E-02  3.10262776E-01  7.54482456E-01
  1.00000000E+00  0.00000000E+00  0.00000000E+00  0.00000000E+00  0.00000000E+00
  0.00000000E+00  0.00000000E+00  0.00000000E+00  7.08742682E-02  3.39752839E-01
  7.27158577E-01  1.00000000E+00  0.00000000E+00  0.00000000E+00  0.00000000E+00
  0.00000000E+00  0.00000000E+00  0.00000000E+00  0.00000000E+00  6.89990666E-02
  3.16423961E-01  7.44308291E-01  1.00000000E+00  0.00000000E+00  0.00000000E+00
  0.00000000E+00  0.00000000E+00  0.00000000E+00  0.00000000E+00  0.00000000E+00
  6.89990666E-02  3.16423961E-01  7.44308291E-01  1.00000000E+00  0.00000000E+00
  0.00000000E+00  0.00000000E+00  0.00000000E+00  0.00000000E+00  0.00000000E+00
  0.00000000E+00  6.89990666E-02  3.16423961E-01  7.44308291E-01  1.00000000E+00
  0.00000000E+00  0.00000000E+00  0.00000000E+00  0.00000000E+00  0.00000000E+00
  0.00000000E+00  0.00000000E+00  0.00000000E+00  0.00000000E+00  0.00000000E+00
  0.00000000E+00  0.00000000E+00  0.00000000E+00  0.00000000E+00  0.00000000E+00
  0.00000000E+00  0.00000000E+00  0.00000000E+00  0.00000000E+00  0.00000000E+00
  0.00000000E+00  0.00000000E+00  0.00000000E+00  0.00000000E+00  0.00000000E+00
  0.00000000E+00  0.00000000E+00  0.00000000E+00  0.00000000E+00  0.00000000E+00
  0.00000000E+00  0.00000000E+00  0.00000000E+00
Coordinates of each shell                  R   N=         111
  8.61380247E-01  4.27411122E-01 -8.27878328E-01  8.61380247E-01  4.27411122E-01
 -8.27878328E-01  8.61380247E-01  4.27411122E-01 -8.27878328E-01  8.61380247E-01
  4.27411122E-01 -8.27878328E-01  8.61380247E-01  4.27411122E-01 -8.27878328E-01
  8.72597969E-01  2.83442518E+00  7.19695841E-01  8.72597969E-01  2.83442518E+00
  7.19695841E-01  8.72597969E-01  2.83442518E+00  7.19695841E-01  8.72597969E-01
  2.83442518E+00  7.19695841E-01 -1.70189756E+00 -1.51750401E+00  3.73955172E-01
 -1.70189756E+00 -1.51750401E+00  3.73955172E-01 -1.70189756E+00 -1.51750401E+00
  3.73955172E-01 -1.70189756E+00 -1.51750401E+00  3.73955172E-01 -4.19612914E+00
 -1.32623266E-01  7.58784205E-03 -4.19612914E+00 -1.32623266E-01  7.58784205E-03
 -4.19612914E+00 -1.32623266E-01  7.58784205E-03 -4.19612914E+00 -1.32623266E-01
  7.58784205E-03  3.39332449E+00 -1.55339766E+00  3.34293620E-01  3.39332449E+00
 -1.55339766E+00  3.34293620E-01  3.39332449E+00 -1.55339766E+00  3.34293620E-01
  3.39332449E+00 -1.55339766E+00  3.34293620E-01 -1.65567204E+00 -3.32276069E+00
 -6.39505764E-01 -1.65567204E+00 -3.32276069E+00 -6.39505764E-01 -1.33681822E+00
 -1.85796523E+00  2.38321561E+00 -1.33681822E+00 -1.85796523E+00  2.38321561E+00
 -4.12547079E+00  1.69545939E+00  9.61891266E-01 -4.12547079E+00  1.69545939E+00
  9.61891266E-01 -4.58554482E+00  1.89429949E-01 -1.99616176E+00 -4.58554482E+00
  1.89429949E-01 -1.99616176E+00 -5.75137506E+00 -1.23561990E+00  8.00290879E-01
 -5.75137506E+00 -1.23561990E+00  8.00290879E-01  5.17672837E+00 -6.66491795E-01
 -2.01971904E-01  5.17672837E+00 -6.66491795E-01 -2.01971904E-01  3.26832837E+00
 -3.43550517E+00 -5.08075539E-01  3.26832837E+00 -3.43550517E+00 -5.08075539E-01
  3.27516974E+00 -1.65937632E+00  2.39378393E+00  3.27516974E+00 -1.65937632E+00
  2.39378393E+00
Constraint Structure                       R   N=          39
  8.61380247E-01  4.27411122E-01 -8.27878328E-01  8.72597969E-01  2.83442518E+00
  7.19695841E-01 -1.70189756E+00 -1.51750401E+00  3.73955172E-01 -4.19612914E+00
 -1.32623266E-01  7.58784205E-03  3.39332449E+00 -1.55339766E+00  3.34293620E-01
 -1.65567204E+00 -3.32276069E+00 -6.39505764E-01 -1.33681822E+00 -1.85796523E+00
  2.38321561E+00 -4.12547079E+00  1.69545939E+00  9.61891266E-01 -4.58554482E+00
  1.89429949E-01 -1.99616176E+00 -5.75137506E+00 -1.23561990E+00  8.00290879E-01
  5.17672837E+00 -6.66491795E-01 -2.01971904E-01  3.26832837E+00 -3.43550517E+00
 -5.08075539E-01  3.27516974E+00 -1.65937632E+00  2.39378393E+00
Num ILSW                                   I              100
ILSW                                       I   N=         100
           0           1           0           1           2           0
           0           0           0           0           0          -1
           0           0           0           0           0           0
           0           0           0           0           1           0
           1           0           0           0           0           0
           0           0      100000           0          -1           0
           0           0           0           0           0           0
           0           0           0           1           1           0
           0           0           1           0           0           0
           0           0           4          40           0           0
           0           0           0           0           0           0
           0           0           0           0           0           0
           0           0           0           0           0           0
           0           0           0           0           0           0
           0           0           0           0           0           0
           0           0           0           0           0           0
           0           0           0           0
Num RLSW                                   I               40
RLSW                                       R   N=          40
  1.00000000E+00  1.00000000E+00  1.00000000E+00  1.00000000E+00  1.00000000E+00
  0.00000000E+00  0.00000000E+00  1.00000000E+00  0.00000000E+00  0.00000000E+00
  0.00000000E+00  0.00000000E+00  1.00000000E+00  0.00000000E+00  0.00000000E+00
  0.00000000E+00  0.00000000E+00  1.00000000E+00  0.00000000E+00  0.00000000E+00
  0.00000000E+00  0.00000000E+00  1.00000000E+00  0.00000000E+00  0.00000000E+00
  0.00000000E+00  0.00000000E+00  1.00000000E+00  0.00000000E+00  0.00000000E+00
  0.00000000E+00  0.00000000E+00  0.00000000E+00  0.00000000E+00  0.00000000E+00
  0.00000000E+00  0.00000000E+00  0.00000000E+00  1.00000000E+00  1.00000000E+00
MxBond                                     I                4
NBond                                      I   N=          13
           3           1           4           4           4           1
           1           1           1           1           1           1
           1
IBond                                      I   N=          52
           2           3           5           0           1           0
           0           0           1           4           6           7
           3           8           9          10           1          11
          12          13           3           0           0           0
           3           0           0           0           4           0
           0           0           4           0           0           0
           4           0           0           0           5           0
           0           0           5           0           0           0
           5           0           0           0
RBond                                      R   N=          52
  2.00000000E+00  1.00000000E+00  1.00000000E+00  0.00000000E+00  2.00000000E+00
  0.00000000E+00  0.00000000E+00  0.00000000E+00  1.00000000E+00  1.00000000E+00
  1.00000000E+00  1.00000000E+00  1.00000000E+00  1.00000000E+00  1.00000000E+00
  1.00000000E+00  1.00000000E+00  1.00000000E+00  1.00000000E+00  1.00000000E+00
  1.00000000E+00  0.00000000E+00  0.00000000E+00  0.00000000E+00  1.00000000E+00
  0.00000000E+00  0.00000000E+00  0.00000000E+00  1.00000000E+00  0.00000000E+00
  0.00000000E+00  0.00000000E+00  1.00000000E+00  0.00000000E+00  0.00000000E+00
  0.00000000E+00  1.00000000E+00  0.00000000E+00  0.00000000E+00  0.00000000E+00
  1.00000000E+00  0.00000000E+00  0.00000000E+00  0.00000000E+00  1.00000000E+00
  0.00000000E+00  0.00000000E+00  0.00000000E+00  1.00000000E+00  0.00000000E+00
  0.00000000E+00  0.00000000E+00
Virial Ratio                               R      2.001039503975536E+00
SCF Energy                                 R     -5.905718617423769E+02
MP2 Energy                                 R     -5.912807163771463E+02
Total Energy                               R     -5.912807163771463E+02
Post-SCF wavefunction norm                 R      1.575098044389737E+00
RMS Force                                  R      5.175911085544547E-07
RMS Density                                R      3.209194818973642E-09
External E-field                           R   N=          35
  0.00000000E+00  0.00000000E+00  0.00000000E+00  0.00000000E+00  0.00000000E+00
  0.00000000E+00  0.00000000E+00  0.00000000E+00  0.00000000E+00  0.00000000E+00
  0.00000000E+00  0.00000000E+00  0.00000000E+00  0.00000000E+00  0.00000000E+00
  0.00000000E+00  0.00000000E+00  0.00000000E+00  0.00000000E+00  0.00000000E+00
  0.00000000E+00  0.00000000E+00  0.00000000E+00  0.00000000E+00  0.00000000E+00
  0.00000000E+00  0.00000000E+00  0.00000000E+00  0.00000000E+00  0.00000000E+00
  0.00000000E+00  0.00000000E+00  0.00000000E+00  0.00000000E+00  0.00000000E+00
IOpCl                                      I                0
IROHF                                      I                0
Alpha Orbital Energies                     R   N=          95
 -9.20563414E+01 -2.05001100E+01 -1.12663813E+01 -1.12623593E+01 -1.12316147E+01
 -9.05268072E+00 -6.73552011E+00 -6.73532827E+00 -6.73320283E+00 -1.31754859E+00
 -1.08178261E+00 -1.01484766E+00 -8.91422719E-01 -8.00895242E-01 -6.52607454E-01
 -6.35469045E-01 -6.09604143E-01 -6.03822560E-01 -5.65805236E-01 -5.27950970E-01
 -5.24981959E-01 -5.18330103E-01 -4.96514571E-01 -4.03579332E-01 -3.58228940E-01
  1.91765696E-01  2.06835347E-01  2.16871109E-01  2.57722634E-01  2.67268741E-01
  2.84293802E-01  2.90472423E-01  3.12358116E-01  3.22972356E-01  3.30865345E-01
  3.51970672E-01  3.88637801E-01  5.15497722E-01  5.61079747E-01  6.16644677E-01
  6.53707828E-01  6.65970846E-01  7.13706539E-01  7.66859087E-01  7.82484628E-01
  8.10125400E-01  8.31512365E-01  8.89623233E-01  9.03409782E-01  1.02618715E+00
  1.05952495E+00  1.08272850E+00  1.10790077E+00  1.11020409E+00  1.12639972E+00
  1.14940374E+00  1.16589078E+00  1.17174815E+00  1.17690098E+00  1.19167008E+00
  1.22881627E+00  1.23891451E+00  1.27716526E+00  1.37837653E+00  1.39419398E+00
  1.42291985E+00  1.50639270E+00  1.54971055E+00  1.73689910E+00  1.77014536E+00
  1.80764042E+00  1.86960159E+00  1.99101653E+00  2.03071353E+00  2.16968942E+00
  2.19038847E+00  2.24684293E+00  2.26452422E+00  2.30061699E+00  2.38818578E+00
  2.42068693E+00  2.46385044E+00  2.54683177E+00  2.55548245E+00  2.57233782E+00
  2.61361401E+00  2.65024974E+00  2.65386216E+00  2.94808351E+00  3.13292035E+00
  4.26395635E+00  4.34261441E+00  4.58443250E+00  4.62314676E+00  4.79852773E+00
Alpha MO coefficients                      R   N=        9025
  9.96259844E-01  1.42212930E-02 -1.95713081E-06 -1.98931018E-05  9.29174238E-05
 -2.00500022E-02  2.96017820E-05  8.68113628E-05 -9.16169476E-05  2.98522835E-03
 -6.27135342E-05 -1.90404653E-04  2.82670854E-04  6.88192295E-03  6.90417947E-03
  6.89850081E-03  4.25229466E-07 -2.69204353E-06  1.88114224E-05  4.18312714E-05
  1.40822360E-04  1.97883776E-06  3.44497335E-05  3.82367435E-05 -3.80771865E-04
  1.47573932E-06 -4.61948059E-05 -1.05927639E-04  1.27557965E-04 -6.98073647E-06
  7.39543083E-05 -1.87487376E-06 -1.51655573E-06 -9.13410387E-05 -7.26502478E-06
  2.97914305E-05  7.36346398E-05  6.00469222E-05 -3.05515249E-05  2.12140328E-04
 -1.92765258E-04 -6.57937685E-05 -9.21818205E-06 -2.64683950E-05 -1.71809626E-05
 -2.42793123E-05 -2.68004350E-05  9.11565995E-06 -2.17137960E-06 -2.58670691E-06
  2.01949448E-05 -1.72621914E-05  1.65567669E-06  8.60818553E-07 -7.39994529E-05
 -1.81928546E-04  8.04755750E-05  5.71221375E-06 -3.36316446E-05 -1.69891513E-05
 -1.69532393E-05  9.66260855E-06 -1.58594861E-06 -1.18565061E-06 -4.62277968E-06
  4.88915777E-05 -7.64257796E-05  6.71418363E-05 -3.46870875E-05  1.69247268E-04
  1.39646223E-04 -1.09365373E-04  1.87173110E-05 -3.50833566E-05 -2.14591563E-05
 -1.77776366E-05  1.90772712E-05 -6.40701765E-06  1.94313975E-06 -3.09549754E-05
 -2.00071476E-04 -2.29222255E-05 -1.68480379E-04  1.74386515E-05 -1.37802592E-04
  2.43324410E-05 -1.12888978E-04 -1.18180323E-05 -3.00094975E-05 -2.60667271E-05
 -1.83248413E-04 -3.07633165E-05 -1.97933164E-04 -2.19728800E-05 -1.87655205E-04
  1.54297912E-05 -6.39476182E-05 -1.17394149E-06 -4.11582010E-05 -3.00136943E-05
  5.17570728E-04  6.26026380E-06  3.85005971E-04  2.57948750E-04 -2.59292415E-05
 -7.87886736E-06 -2.43721364E-04 -4.78339995E-05 -1.18004238E-04 -2.47158860E-05
 -8.61381033E-05  2.53369798E-06  3.66957453E-07  8.16613401E-05  9.94734258E-01
  2.09313498E-02 -5.51401588E-06 -1.16317371E-03 -6.84424702E-04  3.68224644E-03
 -4.96642088E-06  5.42706053E-04  3.01305078E-04 -3.83556313E-03 -4.03095312E-03
 -3.87520914E-03  9.53931148E-07  8.36514435E-07 -1.62414376E-04  1.31597700E-06
  1.56649669E-05 -7.56294850E-06 -1.41793410E-05 -4.73146394E-06 -2.80945259E-05
 -6.43603315E-05 -2.32464838E-05  2.07417600E-05 -4.48279833E-06 -2.09508399E-05
 -1.76504972E-06 -1.43075540E-05 -2.73622637E-06 -2.73910052E-06 -1.60864578E-06
 -8.68777707E-06  6.26414735E-06 -4.33022253E-06 -4.43113974E-06  6.44494236E-05
 -2.80047395E-05  5.51892348E-05  1.83660200E-05 -4.17874614E-06 -4.06333720E-06
 -1.08348782E-06  4.94612080E-06 -1.88082930E-06  7.35077862E-07  1.53422702E-06
  1.77458524E-05  9.71655897E-06 -1.29560794E-05 -5.43474627E-06 -4.27717587E-05
  3.16213456E-05 -3.05709099E-05  3.05349020E-05 -7.44355363E-06 -2.07637463E-05
 -1.17188897E-06  1.22137477E-05  4.88667667E-06 -4.04407589E-06  8.32828720E-06
 -3.16300109E-05  6.67957065E-06 -1.96448189E-05  2.10509586E-05 -1.13641864E-04
 -3.00946864E-06 -1.51352593E-06 -4.98167630E-06 -9.36438245E-06  4.86122815E-06
  3.02690846E-06  9.02390160E-06 -3.34530826E-05  8.33167124E-06 -3.27957527E-05
 -3.82080202E-06 -8.86494975E-05  5.99552072E-05  1.81989059E-05 -2.96126864E-05
  6.52287214E-05 -5.48192471E-04 -2.35313784E-04  2.22259216E-04  4.52236392E-03
 -8.01137983E-04 -1.14303790E-03  1.49197869E-03 -9.40781802E-05 -1.44817068E-04
 -1.98562290E-04  4.11222641E-05 -9.75906441E-06  3.57035875E-05  3.01035699E-05
  1.31845575E-04  4.88620679E-05  4.01206069E-05  1.72448389E-05 -1.04545179E-03
 -3.59448391E-05  2.72549450E-04 -4.06337286E-05  7.47001863E-05  5.04486301E-05
  4.84694291E-05  7.09451563E-05 -4.81912944E-05  1.22398830E-05  9.95816970E-01
  2.84816382E-02  2.81445288E-04  2.23571656E-04 -1.63734433E-04 -1.61136467E-02
 -4.05093957E-04 -1.09613667E-03  1.71090100E-04 -1.74997239E-03 -1.66543709E-03
 -1.60082251E-03 -1.50750866E-04  7.78008562E-05  8.04622983E-05  8.56437471E-03
  2.88207651E-04  5.55870877E-05  2.74063377E-06 -2.18297347E-05  3.73950805E-03
  1.46188103E-03 -6.78044734E-04  3.22154736E-04 -3.95261676E-04 -2.46788148E-04
 -1.30907481E-04  2.06618916E-04 -4.96429837E-05  4.14831556E-05 -1.62357520E-03
 -5.92620222E-05  9.19984545E-05  5.10371306E-05 -1.85240523E-05 -4.60683940E-04
  9.57633784E-05 -8.23185295E-04  3.02328328E-04 -8.55159369E-06 -5.16090866E-05
 -3.21900619E-05  5.98227224E-05 -5.60645322E-06  4.69223392E-06  1.38342212E-04
  2.27007184E-03  2.49956850E-04  2.42017488E-03 -1.28225630E-04 -1.99947339E-04
 -1.36967744E-04  3.12421544E-05 -1.40359442E-04 -6.98010887E-05  2.55584250E-05
  3.43040607E-04 -2.05818643E-05 -5.42894641E-04  4.08381023E-05 -6.06499202E-04
 -3.72017782E-06 -7.93823446E-05 -3.65653223E-05  1.19937020E-05 -2.69709663E-05
  1.13124392E-04  3.84175004E-04 -2.00382025E-04  2.01737689E-04  4.19915696E-03
  9.92954823E-04 -1.16168837E-03  1.36418115E-03 -1.25416672E-04 -1.54074465E-04
 -1.94831948E-04 -2.68078887E-05 -1.46601944E-06  3.67823694E-05  2.62698026E-05
  1.13451451E-04 -3.36401322E-05  3.55952685E-05  2.50311826E-05 -9.16999621E-04
 -3.99175335E-05  2.63138749E-04 -6.98467063E-05  6.51603196E-05  3.79781609E-05
  4.09275716E-05 -5.17051118E-05  4.35246819E-05  1.25841817E-05  1.62036671E-03
  7.80654360E-05 -1.23630180E-04  8.66438422E-05 -1.56457827E-06 -9.43500769E-04
  5.02891632E-04 -1.19345864E-03  2.25983557E-04 -3.19422205E-05 -6.74835401E-05
 -8.13414030E-06 -4.66947764E-06  9.97875642E-06  2.42986026E-05 -9.15913260E-06
 -1.46500622E-04  2.16240411E-05 -1.39570784E-05  6.11923200E-06  1.22188062E-03
  6.22064176E-04 -1.09120625E-04  6.71770689E-05  2.05520711E-05 -5.87888839E-05
 -3.45781418E-05 -2.43192733E-05  1.05386090E-05  8.93602516E-06  9.95748437E-01
  2.85707264E-02 -3.24488011E-04  1.44368459E-04 -1.67081702E-04 -1.44529051E-02
  1.07803086E-03 -5.80268404E-04  1.55587813E-04 -1.97115939E-03 -1.87966869E-03
 -1.82970583E-03  1.71210075E-04 -8.33880225E-05  5.46492458E-05 -4.19153960E-05
 -6.23713105E-04 -8.01590967E-06 -4.34225073E-04 -5.57605138E-05 -8.89889876E-05
 -7.82782068E-05  9.21452642E-05 -2.76114846E-05  3.67869209E-05  1.06479664E-04
  2.07937642E-03  1.05759340E-04  2.24289184E-03  1.82644778E-04  2.27136429E-03
 -1.61238170E-06 -4.50920047E-05 -6.27824607E-06 -8.86800437E-06  4.19315024E-06
 -1.11730854E-04  1.10575814E-04  6.35532016E-05 -3.53461863E-05  4.25451894E-04
 -5.16916636E-04  2.49680673E-04  2.18146324E-04 -2.29068073E-05 -8.56472411E-05
 -1.10753999E-04 -2.73434464E-05 -2.98415254E-05  2.47005562E-05  2.85470147E-05
  1.20016626E-04 -6.84883532E-06 -1.86367166E-06  1.05065175E-05 -6.20961907E-04
  1.26059216E-04  8.47806840E-05  7.88356085E-06  7.59988144E-05  8.41505909E-05
  7.91445549E-05 -1.66356222E-05 -4.27765757E-06  1.58608979E-05 -8.86023260E-03
 -1.05294237E-04  1.66324696E-05 -1.56392132E-05  8.59109885E-06  3.75177641E-03
 -1.81612637E-03  8.13571268E-04 -2.74517291E-04 -4.31471952E-04 -2.01299147E-04
 -1.00000163E-04  1.76106477E-04 -4.45631623E-05  3.98064282E-05  9.95705985E-01
  2.84919319E-02  2.43897601E-04 -1.54364675E-04 -3.14264792E-05 -1.52502792E-02
 -9.84674886E-04  3.76084466E-04  6.89534572E-06 -1.85892425E-03 -1.81868778E-03
 -1.81432608E-03  4.03916637E-05 -1.03942939E-05  4.73802445E-06 -2.55116497E-05
 -7.32308903E-05  3.19692968E-05  9.82806710E-06  1.93415698E-05  3.61583063E-04
 -2.59373621E-04 -5.53440576E-05 -1.30705498E-04 -1.88676481E-05 -2.71036788E-05
 -3.65044882E-05  3.82652060E-06  1.40227971E-05  1.12877781E-06 -1.47799675E-04
  2.01453792E-05 -1.11535488E-04 -1.83165931E-06  1.80719731E-04  2.49182515E-03
  1.75289380E-04  2.53084370E-03  1.20602436E-04  2.40017393E-03 -1.21212835E-05
  1.42374374E-04 -5.25048716E-05 -2.76950511E-05 -1.04959470E-06  2.82938051E-07
 -2.81813463E-01  1.03073194E+00  3.96678284E-04 -3.86099817E-04  7.74472526E-03
  2.29749850E-02 -9.29656130E-05 -8.11090813E-06  1.77647829E-03 -1.07374265E-02
  3.08767617E-04  1.36885165E-03 -2.87995625E-03 -3.84127149E-04  3.90348115E-05
 -5.85026671E-04 -1.36877695E-05  2.55439694E-05  2.61497995E-04 -2.80474667E-04
 -1.95721489E-04 -1.07785763E-05 -1.98564313E-04 -2.69152119E-04  2.03578914E-03
 -3.57949272E-06  2.33929865E-04  8.27892392E-04 -2.51123225E-04 -3.75982483E-04
 -3.39966604E-04  3.35401483E-06  3.96751578E-06 -1.61732497E-04 -1.24120502E-04
  2.91164285E-04 -3.17331641E-05 -1.10660909E-04 -2.26988944E-05  6.27076349E-04
  1.28384658E-03  7.41759927E-04  2.40208487E-04 -1.88446970E-04 -1.56348336E-04
 -1.41118346E-05 -1.12909987E-04  1.16420300E-04  1.26417554E-04 -2.44294440E-05
 -2.02740773E-04 -6.17825562E-05 -2.34024725E-05  3.87802062E-05  6.85607965E-04
  8.73996221E-04 -1.91333155E-04 -3.45675974E-04  5.58537704E-05 -5.96241543E-06
 -3.38842768E-05 -1.65700588E-05 -1.33147626E-05 -1.00518561E-06 -1.36337401E-04
  2.40510925E-04  5.99146469E-05 -1.29505659E-04  8.28097567E-06  9.59321534E-04
 -9.40347211E-04  9.39510213E-04  1.52436087E-05 -1.80481722E-04 -1.48847987E-04
 -3.46832169E-05  1.62569144E-04 -1.47194590E-04  1.18051182E-04  1.84783018E-05