
    -----------------------------------------------------------------------
          Psi4: An Open-Source Ab Initio Electronic Structure Package
                               Psi4 1.3.2 release

                         Git: Rev {HEAD} ecbda83 


    R. M. Parrish, L. A. Burns, D. G. A. Smith, A. C. Simmonett,
    A. E. DePrince III, E. G. Hohenstein, U. Bozkaya, A. Yu. Sokolov,
    R. Di Remigio, R. M. Richard, J. F. Gonthier, A. M. James,
    H. R. McAlexander, A. Kumar, M. Saitow, X. Wang, B. P. Pritchard,
    P. Verma, H. F. Schaefer III, K. Patkowski, R. A. King, E. F. Valeev,
    F. A. Evangelista, J. M. Turney, T. D. Crawford, and C. D. Sherrill,
    J. Chem. Theory Comput. 13(7) pp 3185--3197 (2017).
    (doi: 10.1021/acs.jctc.7b00174)


                         Additional Contributions by
    P. Kraus, H. Kruse, M. H. Lechner, M. C. Schieber, R. A. Shaw,
    A. Alenaizan, R. Galvelis, Z. L. Glick, S. Lehtola, and J. P. Misiewicz

    -----------------------------------------------------------------------


    Psi4 started on: Monday, 02 November 2020 04:16PM

    Process ID: 32140
    Host:       node91.bme.utexas.edu
    PSIDATADIR: /home/xy3866/psi4conda/share/psi4
    Memory:     500.0 MiB
    Threads:    8
    
  ==> Input File <==

--------------------------------------------------------------------------
#psi4
#
memory 32 gb

molecule  {
0 1
  S        1.8142300     0.7226310    -0.3411240
  O       -1.8432130    -0.9348080    -0.8000930
  O        0.4941690    -1.0618130     1.1146640
  C       -0.8273310     0.8335030     0.4756360
  C       -3.3832440     0.5955310     0.2374230
  C       -2.0096370     0.0521440    -0.0950140
  C        0.4326040    -0.0039200     0.5084100
  C       -4.4921710    -0.2737260    -0.3334663
  C        3.0576300    -0.5565920    -0.0082180
  C        4.4432860    -0.0468870    -0.3740170
  H       -0.6942050     1.7459430    -0.1201930
  H       -1.0474180     1.1506300     1.5016930
  H       -3.4213414     0.7453771     1.3242482
  H       -3.4442640     1.6111560    -0.1826160
  H       -5.4818800     0.1657790    -0.0500790
  H       -4.4326880    -0.4035450    -1.3660960
  H       -4.4661600    -1.2732880     0.1669010
  H        2.9964590    -0.8086780     1.0500210
  H        2.8025100    -1.4530070    -0.5759610
  H        4.5013120     0.2245390    -1.4310650
  H        4.7086350     0.8297180     0.2214350
  H        5.1861620    -0.8265290    -0.1846820
units angstrom
no_reorient  #important for SAPT in psi4, default
symmetry c1  #important for SAPT in psi4, default
}

set PROPERTIES_ORIGIN ["COM"]
properties('MP2/aug-cc-pvtz', properties = ['dipole'])
--------------------------------------------------------------------------

  Memory set to  29.802 GiB by Python driver.
    SCF Algorithm Type (re)set to DF.

*** tstart() called on node91.bme.utexas.edu
*** at Mon Nov  2 16:16:42 2020

   => Loading Basis Set <=

    Name: AUG-CC-PVTZ
    Role: ORBITAL
    Keyword: BASIS
    atoms 1     entry S          line   902 file /home/xy3866/psi4conda/share/psi4/basis/aug-cc-pvtz.gbs 
    atoms 2-3   entry O          line   327 file /home/xy3866/psi4conda/share/psi4/basis/aug-cc-pvtz.gbs 
    atoms 4-10  entry C          line   235 file /home/xy3866/psi4conda/share/psi4/basis/aug-cc-pvtz.gbs 
    atoms 11-22 entry H          line    36 file /home/xy3866/psi4conda/share/psi4/basis/aug-cc-pvtz.gbs 


         ---------------------------------------------------------
                                   SCF
               by Justin Turney, Rob Parrish, Andy Simmonett
                          and Daniel G. A. Smith
                              RHF Reference
                        8 Threads,  30517 MiB Core
         ---------------------------------------------------------

  ==> Geometry <==

    Molecular point group: c1
    Full point group: C1

    Geometry (in Angstrom), charge = 0, multiplicity = 1:

       Center              X                  Y                   Z               Mass       
    ------------   -----------------  -----------------  -----------------  -----------------
         S            1.812569589544     0.722066669679    -0.337440991089    31.972071174400
         O           -1.844873410456    -0.935372330321    -0.796409991089    15.994914619570
         O            0.492508589544    -1.062377330321     1.118347008911    15.994914619570
         C           -0.828991410456     0.832938669679     0.479319008911    12.000000000000
         C           -3.384904410456     0.594966669679     0.241106008911    12.000000000000
         C           -2.011297410456     0.051579669679    -0.091330991089    12.000000000000
         C            0.430943589544    -0.004484330321     0.512093008911    12.000000000000
         C           -4.493831410456    -0.274290330321    -0.329783291089    12.000000000000
         C            3.055969589544    -0.557156330321    -0.004534991089    12.000000000000
         C            4.441625589544    -0.047451330321    -0.370333991089    12.000000000000
         H           -0.695865410456     1.745378669679    -0.116509991089     1.007825032230
         H           -1.049078410456     1.150065669679     1.505376008911     1.007825032230
         H           -3.423001810456     0.744812769679     1.327931208911     1.007825032230
         H           -3.445924410456     1.610591669679    -0.178932991089     1.007825032230
         H           -5.483540410456     0.165214669679    -0.046395991089     1.007825032230
         H           -4.434348410456    -0.404109330321    -1.362412991089     1.007825032230
         H           -4.467820410456    -1.273852330321     0.170584008911     1.007825032230
         H            2.994798589544    -0.809242330321     1.053704008911     1.007825032230
         H            2.800849589544    -1.453571330321    -0.572277991089     1.007825032230
         H            4.499651589544     0.223974669679    -1.427381991089     1.007825032230
         H            4.706974589544     0.829153669679     0.225118008911     1.007825032230
         H            5.184501589544    -0.827093330321    -0.180998991089     1.007825032230

  Running in c1 symmetry.

  Rotational constants: A =      0.12718  B =      0.01422  C =      0.01389 [cm^-1]
  Rotational constants: A =   3812.83775  B =    426.20644  C =    416.37589 [MHz]
  Nuclear repulsion =  603.665097505352605

  Charge       = 0
  Multiplicity = 1
  Electrons    = 86
  Nalpha       = 43
  Nbeta        = 43

  ==> Algorithm <==

  SCF Algorithm Type is DF.
  DIIS enabled.
  MOM disabled.
  Fractional occupation disabled.
  Guess Type is SAD.
  Energy threshold   = 1.00e-10
  Density threshold  = 1.00e-10
  Integral threshold = 0.00e+00

  ==> Primary Basis <==

  Basis Set: AUG-CC-PVTZ
    Blend: AUG-CC-PVTZ
    Number of shells: 250
    Number of basis function: 740
    Number of Cartesian functions: 854
    Spherical Harmonics?: true
    Max angular momentum: 3

   => Loading Basis Set <=

    Name: (AUG-CC-PVTZ AUX)
    Role: JKFIT
    Keyword: DF_BASIS_SCF
    atoms 1     entry S          line   730 file /home/xy3866/psi4conda/share/psi4/basis/aug-cc-pvtz-jkfit.gbs 
    atoms 2-3   entry O          line   286 file /home/xy3866/psi4conda/share/psi4/basis/aug-cc-pvtz-jkfit.gbs 
    atoms 4-10  entry C          line   162 file /home/xy3866/psi4conda/share/psi4/basis/aug-cc-pvtz-jkfit.gbs 
    atoms 11-22 entry H          line    70 file /home/xy3866/psi4conda/share/psi4/basis/aug-cc-pvtz-jkfit.gbs 

  ==> Pre-Iterations <==

   -------------------------------------------------------
    Irrep   Nso     Nmo     Nalpha   Nbeta   Ndocc  Nsocc
   -------------------------------------------------------
     A        740     740       0       0       0       0
   -------------------------------------------------------
    Total     740     740      43      43      43       0
   -------------------------------------------------------

  ==> Integral Setup <==

  DFHelper Memory: AOs need 5.863 GiB; user supplied 22.352 GiB. Using in-core AOs.

  ==> MemDFJK: Density-Fitted J/K Matrices <==

    J tasked:                   Yes
    K tasked:                   Yes
    wK tasked:                   No
    OpenMP threads:               8
    Memory [MiB]:             22888
    Algorithm:                 Disk
    Schwarz Cutoff:           1E-12
    Mask sparsity (%):      14.4985
    Fitting Condition:        1E-10

   => Auxiliary Basis Set <=

  Basis Set: (AUG-CC-PVTZ AUX)
    Blend: AUG-CC-PVTZ-JKFIT
    Number of shells: 480
    Number of basis function: 1634
    Number of Cartesian functions: 2019
    Spherical Harmonics?: true
    Max angular momentum: 4

  Minimum eigenvalue in the overlap matrix is 3.5585852361E-06.
  Using Symmetric Orthogonalization.

  SCF Guess: Superposition of Atomic Densities via on-the-fly atomic UHF.

  ==> Iterations <==

                           Total Energy        Delta E     RMS |[F,P]|

   @DF-RHF iter SAD:  -818.29797555074742   -8.18298e+02   0.00000e+00 
   @DF-RHF iter   1:  -819.09028858269096   -7.92313e-01   1.15222e-03 DIIS
   @DF-RHF iter   2:  -819.36042591185844   -2.70137e-01   7.67538e-04 DIIS
   @DF-RHF iter   3:  -819.48003414558787   -1.19608e-01   1.63104e-04 DIIS
   @DF-RHF iter   4:  -819.48910886665124   -9.07472e-03   6.14851e-05 DIIS
   @DF-RHF iter   5:  -819.49093701236632   -1.82815e-03   1.40051e-05 DIIS
   @DF-RHF iter   6:  -819.49112118478502   -1.84172e-04   6.49265e-06 DIIS
   @DF-RHF iter   7:  -819.49116068380476   -3.94990e-05   3.14054e-06 DIIS
   @DF-RHF iter   8:  -819.49116861617426   -7.93237e-06   1.39064e-06 DIIS
   @DF-RHF iter   9:  -819.49116993361179   -1.31744e-06   3.66466e-07 DIIS
   @DF-RHF iter  10:  -819.49117003468064   -1.01069e-07   1.30682e-07 DIIS
   @DF-RHF iter  11:  -819.49117004480865   -1.01280e-08   4.86976e-08 DIIS
   @DF-RHF iter  12:  -819.49117004653237   -1.72372e-09   1.79294e-08 DIIS
   @DF-RHF iter  13:  -819.49117004678453   -2.52157e-10   5.76199e-09 DIIS
   @DF-RHF iter  14:  -819.49117004681239   -2.78533e-11   2.57886e-09 DIIS
   @DF-RHF iter  15:  -819.49117004681693   -4.54747e-12   8.79844e-10 DIIS
   @DF-RHF iter  16:  -819.49117004681693    0.00000e+00   3.78752e-10 DIIS
   @DF-RHF iter  17:  -819.49117004681455    2.38742e-12   1.83445e-10 DIIS
   @DF-RHF iter  18:  -819.49117004681739   -2.84217e-12   8.91779e-11 DIIS
  Energy and wave function converged.


  ==> Post-Iterations <==

    Orbital Energies [Eh]
    ---------------------

    Doubly Occupied:                                                      

       1A    -91.972036     2A    -20.555124     3A    -20.554992  
       4A    -11.367332     5A    -11.345380     6A    -11.266656  
       7A    -11.262560     8A    -11.250447     9A    -11.231595  
      10A    -11.223454    11A     -8.973648    12A     -6.654802  
      13A     -6.653673    14A     -6.653059    15A     -1.397236  
      16A     -1.383794    17A     -1.093929    18A     -1.077430  
      19A     -1.042744    20A     -0.972066    21A     -0.897048  
      22A     -0.837799    23A     -0.760166    24A     -0.726876  
      25A     -0.677893    26A     -0.667977    27A     -0.648071  
      28A     -0.638497    29A     -0.633849    30A     -0.608750  
      31A     -0.595172    32A     -0.560008    33A     -0.544344  
      34A     -0.535038    35A     -0.527575    36A     -0.524017  
      37A     -0.510505    38A     -0.502731    39A     -0.487787  
      40A     -0.465257    41A     -0.429271    42A     -0.405905  
      43A     -0.371061  

    Virtual:                                                              

      44A      0.024222    45A      0.030309    46A      0.035433  
      47A      0.037392    48A      0.045704    49A      0.046672  
      50A      0.047593    51A      0.059450    52A      0.061494  
      53A      0.066370    54A      0.069148    55A      0.071074  
      56A      0.089212    57A      0.101053    58A      0.104491  
      59A      0.108589    60A      0.110681    61A      0.114632  
      62A      0.115522    63A      0.122132    64A      0.123189  
      65A      0.124672    66A      0.129936    67A      0.130784  
      68A      0.135541    69A      0.137634    70A      0.140513  
      71A      0.144506    72A      0.147859    73A      0.150359  
      74A      0.156958    75A      0.159580    76A      0.169553  
      77A      0.171254    78A      0.175680    79A      0.182961  
      80A      0.189975    81A      0.194785    82A      0.198768  
      83A      0.205535    84A      0.211792    85A      0.215725  
      86A      0.221435    87A      0.226926    88A      0.233896  
      89A      0.237119    90A      0.243685    91A      0.247452  
      92A      0.250103    93A      0.255090    94A      0.257537  
      95A      0.264946    96A      0.270546    97A      0.274613  
      98A      0.283113    99A      0.284797   100A      0.288152  
     101A      0.289116   102A      0.293224   103A      0.299435  
     104A      0.304218   105A      0.307855   106A      0.311371  
     107A      0.317352   108A      0.328116   109A      0.332555  
     110A      0.335020   111A      0.337320   112A      0.343696  
     113A      0.345841   114A      0.351406   115A      0.353786  
     116A      0.359657   117A      0.361758   118A      0.366038  
     119A      0.371278   120A      0.372814   121A      0.376128  
     122A      0.379506   123A      0.390177   124A      0.392223  
     125A      0.394124   126A      0.398882   127A      0.403049  
     128A      0.408114   129A      0.411630   130A      0.413411  
     131A      0.418595   132A      0.421300   133A      0.425292  
     134A      0.429178   135A      0.436151   136A      0.439399  
     137A      0.440936   138A      0.442532   139A      0.446056  
     140A      0.449897   141A      0.453478   142A      0.455903  
     143A      0.458719   144A      0.465719   145A      0.469388  
     146A      0.471734   147A      0.477843   148A      0.483802  
     149A      0.490675   150A      0.493675   151A      0.496487  
     152A      0.497955   153A      0.503664   154A      0.507834  
     155A      0.508575   156A      0.512513   157A      0.519299  
     158A      0.521743   159A      0.524926   160A      0.530815  
     161A      0.534906   162A      0.537311   163A      0.540256  
     164A      0.548588   165A      0.551257   166A      0.555924  
     167A      0.559989   168A      0.566897   169A      0.571739  
     170A      0.575907   171A      0.583099   172A      0.584520  
     173A      0.594235   174A      0.605827   175A      0.608288  
     176A      0.613689   177A      0.622414   178A      0.628501  
     179A      0.631088   180A      0.633526   181A      0.646442  
     182A      0.651428   183A      0.661298   184A      0.669319  
     185A      0.672224   186A      0.684781   187A      0.688884  
     188A      0.694760   189A      0.705366   190A      0.722133  
     191A      0.730287   192A      0.738815   193A      0.743393  
     194A      0.751960   195A      0.770250   196A      0.781989  
     197A      0.782802   198A      0.785656   199A      0.793666  
     200A      0.797076   201A      0.804238   202A      0.807235  
     203A      0.814278   204A      0.824250   205A      0.826422  
     206A      0.831677   207A      0.834899   208A      0.838834  
     209A      0.845447   210A      0.849789   211A      0.853727  
     212A      0.860238   213A      0.865298   214A      0.873566  
     215A      0.876278   216A      0.877963   217A      0.880411  
     218A      0.882846   219A      0.893718   220A      0.898825  
     221A      0.901189   222A      0.903704   223A      0.907775  
     224A      0.915123   225A      0.918117   226A      0.921699  
     227A      0.924855   228A      0.926862   229A      0.938515  
     230A      0.940718   231A      0.942727   232A      0.948582  
     233A      0.952051   234A      0.962026   235A      0.965018  
     236A      0.972840   237A      0.975719   238A      0.981291  
     239A      0.983421   240A      0.990807   241A      0.993094  
     242A      0.997152   243A      1.006528   244A      1.011011  
     245A      1.017039   246A      1.021981   247A      1.024682  
     248A      1.031908   249A      1.038674   250A      1.042973  
     251A      1.045671   252A      1.052096   253A      1.055753  
     254A      1.058872   255A      1.065845   256A      1.067251  
     257A      1.072936   258A      1.078100   259A      1.086310  
     260A      1.090032   261A      1.095219   262A      1.102048  
     263A      1.104835   264A      1.116474   265A      1.123121  
     266A      1.125382   267A      1.132796   268A      1.145030  
     269A      1.146889   270A      1.153832   271A      1.155269  
     272A      1.158970   273A      1.161126   274A      1.165808  
     275A      1.167902   276A      1.179318   277A      1.183062  
     278A      1.190046   279A      1.193248   280A      1.195597  
     281A      1.205532   282A      1.207431   283A      1.219240  
     284A      1.226830   285A      1.234636   286A      1.239652  
     287A      1.243870   288A      1.253592   289A      1.257152  
     290A      1.264307   291A      1.267989   292A      1.278764  
     293A      1.281212   294A      1.287361   295A      1.299003  
     296A      1.304347   297A      1.308287   298A      1.322590  
     299A      1.323961   300A      1.334381   301A      1.342364  
     302A      1.354068   303A      1.355432   304A      1.369843  
     305A      1.373308   306A      1.379444   307A      1.384173  
     308A      1.401942   309A      1.407989   310A      1.413914  
     311A      1.417157   312A      1.431869   313A      1.434453  
     314A      1.443146   315A      1.450553   316A      1.456544  
     317A      1.462895   318A      1.469855   319A      1.489276  
     320A      1.489930   321A      1.499946   322A      1.505116  
     323A      1.511171   324A      1.517347   325A      1.532242  
     326A      1.538097   327A      1.546116   328A      1.553118  
     329A      1.560261   330A      1.569293   331A      1.579830  
     332A      1.585642   333A      1.596735   334A      1.602784  
     335A      1.612179   336A      1.619000   337A      1.631726  
     338A      1.632551   339A      1.637766   340A      1.642752  
     341A      1.647079   342A      1.651547   343A      1.655499  
     344A      1.660271   345A      1.669048   346A      1.670378  
     347A      1.679902   348A      1.682054   349A      1.700536  
     350A      1.704705   351A      1.709620   352A      1.711325  
     353A      1.721155   354A      1.723084   355A      1.730846  
     356A      1.734504   357A      1.744765   358A      1.745854  
     359A      1.752492   360A      1.760399   361A      1.767051  
     362A      1.774878   363A      1.778970   364A      1.791513  
     365A      1.802255   366A      1.812268   367A      1.816287  
     368A      1.828728   369A      1.831032   370A      1.835444  
     371A      1.845687   372A      1.850204   373A      1.858397  
     374A      1.865760   375A      1.869080   376A      1.880852  
     377A      1.883057   378A      1.898052   379A      1.905294  
     380A      1.915121   381A      1.921770   382A      1.934071  
     383A      1.943427   384A      1.949166   385A      1.953693  
     386A      1.961814   387A      1.967301   388A      1.970137  
     389A      1.976625   390A      1.985480   391A      1.990924  
     392A      2.000289   393A      2.018024   394A      2.021563  
     395A      2.031061   396A      2.035069   397A      2.037195  
     398A      2.048419   399A      2.053023   400A      2.084195  
     401A      2.098405   402A      2.100361   403A      2.106448  
     404A      2.113284   405A      2.128187   406A      2.142590  
     407A      2.149132   408A      2.182950   409A      2.189456  
     410A      2.202425   411A      2.213308   412A      2.220085  
     413A      2.234989   414A      2.241190   415A      2.245446  
     416A      2.247669   417A      2.254816   418A      2.260848  
     419A      2.267871   420A      2.279466   421A      2.289251  
     422A      2.295970   423A      2.306894   424A      2.317618  
     425A      2.331481   426A      2.340389   427A      2.348348  
     428A      2.364875   429A      2.373367   430A      2.383569  
     431A      2.389759   432A      2.401368   433A      2.407806  
     434A      2.423138   435A      2.429717   436A      2.437839  
     437A      2.466421   438A      2.469735   439A      2.486855  
     440A      2.508877   441A      2.527858   442A      2.545833  
     443A      2.550121   444A      2.555843   445A      2.572978  
     446A      2.577869   447A      2.594635   448A      2.606329  
     449A      2.616280   450A      2.630627   451A      2.645107  
     452A      2.656837   453A      2.676974   454A      2.683871  
     455A      2.697573   456A      2.706668   457A      2.710092  
     458A      2.746488   459A      2.764914   460A      2.787082  
     461A      2.802288   462A      2.835715   463A      2.838492  
     464A      2.869916   465A      2.875199   466A      2.882896  
     467A      2.897746   468A      2.915954   469A      2.931066  
     470A      2.961550   471A      2.969069   472A      2.980979  
     473A      2.991018   474A      3.040303   475A      3.049080  
     476A      3.055779   477A      3.090293   478A      3.095994  
     479A      3.113909   480A      3.149930   481A      3.160315  
     482A      3.190409   483A      3.234787   484A      3.258830  
     485A      3.269546   486A      3.285080   487A      3.302177  
     488A      3.324250   489A      3.345237   490A      3.361840  
     491A      3.390505   492A      3.398243   493A      3.421609  
     494A      3.431019   495A      3.437633   496A      3.445688  
     497A      3.458791   498A      3.467832   499A      3.482497  
     500A      3.489268   501A      3.513315   502A      3.516249  
     503A      3.558293   504A      3.561663   505A      3.582193  
     506A      3.586762   507A      3.591952   508A      3.604011  
     509A      3.611698   510A      3.626873   511A      3.645908  
     512A      3.654679   513A      3.661390   514A      3.669759  
     515A      3.677893   516A      3.687383   517A      3.699128  
     518A      3.703215   519A      3.705279   520A      3.711868  
     521A      3.723813   522A      3.750687   523A      3.755578  
     524A      3.762772   525A      3.767365   526A      3.782074  
     527A      3.796516   528A      3.797029   529A      3.809476  
     530A      3.814566   531A      3.830996   532A      3.836771  
     533A      3.845851   534A      3.858426   535A      3.865665  
     536A      3.879212   537A      3.880534   538A      3.901254  
     539A      3.902257   540A      3.917304   541A      3.935679  
     542A      3.937912   543A      3.942980   544A      3.961536  
     545A      3.968795   546A      3.981212   547A      3.991513  
     548A      3.996482   549A      4.002131   550A      4.016082  
     551A      4.032949   552A      4.042672   553A      4.058010  
     554A      4.061653   555A      4.071526   556A      4.073058  
     557A      4.081007   558A      4.108794   559A      4.121427  
     560A      4.123845   561A      4.141304   562A      4.156946  
     563A      4.158988   564A      4.169282   565A      4.175860  
     566A      4.192375   567A      4.199767   568A      4.209578  
     569A      4.219045   570A      4.221966   571A      4.230385  
     572A      4.237377   573A      4.244806   574A      4.246969  
     575A      4.263156   576A      4.271372   577A      4.292134  
     578A      4.306482   579A      4.325409   580A      4.334672  
     581A      4.349995   582A      4.358148   583A      4.366819  
     584A      4.391891   585A      4.403327   586A      4.408242  
     587A      4.425378   588A      4.442350   589A      4.456885  
     590A      4.475280   591A      4.490293   592A      4.494514  
     593A      4.520571   594A      4.534173   595A      4.558640  
     596A      4.563010   597A      4.587833   598A      4.596825  
     599A      4.611213   600A      4.622294   601A      4.629677  
     602A      4.637263   603A      4.658530   604A      4.670871  
     605A      4.681326   606A      4.692641   607A      4.710956  
     608A      4.721216   609A      4.739379   610A      4.763228  
     611A      4.780484   612A      4.804270   613A      4.819046  
     614A      4.828071   615A      4.835571   616A      4.840540  
     617A      4.848612   618A      4.858257   619A      4.863388  
     620A      4.872134   621A      4.887004   622A      4.909204  
     623A      4.934339   624A      4.948169   625A      4.956566  
     626A      4.966018   627A      4.982722   628A      4.997469  
     629A      5.019198   630A      5.035534   631A      5.061755  
     632A      5.067414   633A      5.093511   634A      5.101508  
     635A      5.107235   636A      5.116851   637A      5.135704  
     638A      5.154642   639A      5.158568   640A      5.164065  
     641A      5.178413   642A      5.204697   643A      5.218102  
     644A      5.247483   645A      5.259429   646A      5.275734  
     647A      5.278594   648A      5.297011   649A      5.314159  
     650A      5.332958   651A      5.344256   652A      5.355122  
     653A      5.368371   654A      5.377540   655A      5.390882  
     656A      5.398270   657A      5.430424   658A      5.441101  
     659A      5.454307   660A      5.465899   661A      5.494643  
     662A      5.521162   663A      5.532821   664A      5.539264  
     665A      5.555253   666A      5.572793   667A      5.608866  
     668A      5.646590   669A      5.656053   670A      5.671966  
     671A      5.681802   672A      5.713192   673A      5.729099  
     674A      5.751361   675A      5.770818   676A      5.794476  
     677A      5.807413   678A      5.840076   679A      5.860840  
     680A      5.973330   681A      5.982669   682A      6.006770  
     683A      6.010481   684A      6.032814   685A      6.065036  
     686A      6.080557   687A      6.091236   688A      6.128397  
     689A      6.157589   690A      6.175109   691A      6.198099  
     692A      6.209969   693A      6.258298   694A      6.295330  
     695A      6.338946   696A      6.374182   697A      6.422524  
     698A      6.472703   699A      6.502082   700A      6.703989  
     701A      6.736738   702A      6.768507   703A      6.775269  
     704A      6.792899   705A      6.804976   706A      6.810583  
     707A      6.827456   708A      6.851086   709A      6.866442  
     710A      6.879056   711A      7.051375   712A      7.079926  
     713A      7.109225   714A      7.145935   715A      7.173507  
     716A      7.258823   717A      7.407462   718A      7.420091  
     719A      7.431199   720A      7.499996   721A      7.505269  
     722A      7.549520   723A      7.628804   724A      7.662350  
     725A      7.715335   726A      7.738790   727A      7.881577  
     728A      7.931819   729A      8.013414   730A      8.045685  
     731A      8.365324   732A     15.269542   733A     15.885587  
     734A     16.205996   735A     17.286381   736A     17.442056  
     737A     18.133183   738A     18.405196   739A     18.695234  
     740A     20.272979  

    Final Occupation by Irrep:
              A 
    DOCC [    43 ]

  @DF-RHF Final Energy:  -819.49117004681739

   => Energetics <=

    Nuclear Repulsion Energy =            603.6650975053526054
    One-Electron Energy =               -2323.3374237627062939
    Two-Electron Energy =                 900.1811562105363009
    Total Energy =                       -819.4911700468173876

Computation Completed

*** tstop() called on node91.bme.utexas.edu at Mon Nov  2 16:19:49 2020
Module time:
	user time   =     428.01 seconds =       7.13 minutes
	system time =      51.79 seconds =       0.86 minutes
	total time  =        187 seconds =       3.12 minutes
Total time:
	user time   =     428.01 seconds =       7.13 minutes
	system time =      51.79 seconds =       0.86 minutes
	total time  =        187 seconds =       3.12 minutes
   => Loading Basis Set <=

    Name: (AUG-CC-PVTZ AUX)
    Role: RIFIT
    Keyword: DF_BASIS_MP2
    atoms 1     entry S          line   666 file /home/xy3866/psi4conda/share/psi4/basis/aug-cc-pvtz-ri.gbs 
    atoms 2-3   entry O          line   264 file /home/xy3866/psi4conda/share/psi4/basis/aug-cc-pvtz-ri.gbs 
    atoms 4-10  entry C          line   148 file /home/xy3866/psi4conda/share/psi4/basis/aug-cc-pvtz-ri.gbs 
    atoms 11-22 entry H          line    30 file /home/xy3866/psi4conda/share/psi4/basis/aug-cc-pvtz-ri.gbs 


*** tstart() called on node91.bme.utexas.edu
*** at Mon Nov  2 16:19:49 2020


  //>>>>>>>>>>>>>>>>>>>>>>>>>>>>>>>>>>>//
  //               DFMP2               //
  //<<<<<<<<<<<<<<<<<<<<<<<<<<<<<<<<<<<//

	 --------------------------------------------------------
	                          DF-MP2                         
	      2nd-Order Density-Fitted Moller-Plesset Theory     
	              RMP2 Wavefunction,   8 Threads             
	                                                         
	        Rob Parrish, Justin Turney, Andy Simmonett,      
	           Ed Hohenstein, and C. David Sherrill          
	 --------------------------------------------------------

   => Auxiliary Basis Set <=

  Basis Set: (AUG-CC-PVTZ AUX)
    Blend: AUG-CC-PVTZ-RI
    Number of shells: 457
    Number of basis function: 1653
    Number of Cartesian functions: 2075
    Spherical Harmonics?: true
    Max angular momentum: 4

	 --------------------------------------------------------
	                 NBF =   740, NAUX =  1653
	 --------------------------------------------------------
	   CLASS    FOCC     OCC    AOCC    AVIR     VIR    FVIR
	   PAIRS       0      43      43     697     697       0
	 --------------------------------------------------------

  DFHelper Memory: AOs need 5.863 GiB; user supplied 22.352 GiB. Using in-core AOs.


         ------------------------------------------------------------
                                     CPHF                           
                                  Rob Parrish                       
         ------------------------------------------------------------

  ==> Geometry <==

    Molecular point group: c1
    Full point group: C1

    Geometry (in Angstrom), charge = 0, multiplicity = 1:

       Center              X                  Y                   Z               Mass       
    ------------   -----------------  -----------------  -----------------  -----------------
         S            1.812569589544     0.722066669679    -0.337440991089    31.972071174400
         O           -1.844873410456    -0.935372330321    -0.796409991089    15.994914619570
         O            0.492508589544    -1.062377330321     1.118347008911    15.994914619570
         C           -0.828991410456     0.832938669679     0.479319008911    12.000000000000
         C           -3.384904410456     0.594966669679     0.241106008911    12.000000000000
         C           -2.011297410456     0.051579669679    -0.091330991089    12.000000000000
         C            0.430943589544    -0.004484330321     0.512093008911    12.000000000000
         C           -4.493831410456    -0.274290330321    -0.329783291089    12.000000000000
         C            3.055969589544    -0.557156330321    -0.004534991089    12.000000000000
         C            4.441625589544    -0.047451330321    -0.370333991089    12.000000000000
         H           -0.695865410456     1.745378669679    -0.116509991089     1.007825032230
         H           -1.049078410456     1.150065669679     1.505376008911     1.007825032230
         H           -3.423001810456     0.744812769679     1.327931208911     1.007825032230
         H           -3.445924410456     1.610591669679    -0.178932991089     1.007825032230
         H           -5.483540410456     0.165214669679    -0.046395991089     1.007825032230
         H           -4.434348410456    -0.404109330321    -1.362412991089     1.007825032230
         H           -4.467820410456    -1.273852330321     0.170584008911     1.007825032230
         H            2.994798589544    -0.809242330321     1.053704008911     1.007825032230
         H            2.800849589544    -1.453571330321    -0.572277991089     1.007825032230
         H            4.499651589544     0.223974669679    -1.427381991089     1.007825032230
         H            4.706974589544     0.829153669679     0.225118008911     1.007825032230
         H            5.184501589544    -0.827093330321    -0.180998991089     1.007825032230

  Nuclear repulsion =  603.665097505352605
  Reference energy  = -819.491170046817388

  ==> Basis Set <==

  Basis Set: AUG-CC-PVTZ
    Blend: AUG-CC-PVTZ
    Number of shells: 250
    Number of basis function: 740
    Number of Cartesian functions: 854
    Spherical Harmonics?: true
    Max angular momentum: 3

  ==> CGRSolver (by Rob Parrish) <==

   Number of roots    =         1
   Preconditioning    =    JACOBI
   Convergence cutoff =     1E-06
   Maximum iterations =       100

  ==> CPHFRHamiltonian (by Rob Parrish) <== 

  ==> MemDFJK: Density-Fitted J/K Matrices <==

    J tasked:                   Yes
    K tasked:                   Yes
    wK tasked:                   No
    OpenMP threads:               8
    Memory [MiB]:             22888
    Algorithm:                 Disk
    Schwarz Cutoff:           1E-12
    Mask sparsity (%):      14.4985
    Fitting Condition:        1E-10

   => Auxiliary Basis Set <=

  Basis Set: (AUG-CC-PVTZ AUX)
    Blend: AUG-CC-PVTZ-JKFIT
    Number of shells: 480
    Number of basis function: 1634
    Number of Cartesian functions: 2019
    Spherical Harmonics?: true
    Max angular momentum: 4

  ==> CPHF Iterations <==

  => Iterations <=

             Iter  Converged  Remaining    Residual
  CGR           1          0          1   1.305E-01
  CGR           2          0          1   3.911E-02
  CGR           3          0          1   1.475E-02
  CGR           4          0          1   5.094E-03
  CGR           5          0          1   2.013E-03
  CGR           6          0          1   7.918E-04
  CGR           7          0          1   3.474E-04
  CGR           8          0          1   1.488E-04
  CGR           9          0          1   5.698E-05
  CGR          10          0          1   2.266E-05
  CGR          11          0          1   9.234E-06
  CGR          12          0          1   4.415E-06
  CGR          13          0          1   1.769E-06
  CGR          14          1          0   4.993E-07

    CGRSolver converged.

	-----------------------------------------------------------
	 ==================> DF-MP2 Energies <==================== 
	-----------------------------------------------------------
	 Reference Energy          =    -819.4911700468173876 [Eh]
	 Singles Energy            =      -0.0000000000000000 [Eh]
	 Same-Spin Energy          =      -0.4843204815925071 [Eh]
	 Opposite-Spin Energy      =      -1.5712169630721062 [Eh]
	 Correlation Energy        =      -2.0555374446646133 [Eh]
	 Total Energy              =    -821.5467074914820387 [Eh]
	-----------------------------------------------------------
	 ================> DF-SCS-MP2 Energies <================== 
	-----------------------------------------------------------
	 SCS Same-Spin Scale       =       0.3333333333333333 [-]
	 SCS Opposite-Spin Scale   =       1.2000000000000000 [-]
	 SCS Same-Spin Energy      =      -0.1614401605308357 [Eh]
	 SCS Opposite-Spin Energy  =      -1.8854603556865275 [Eh]
	 SCS Correlation Energy    =      -2.0469005162173630 [Eh]
	 SCS Total Energy          =    -821.5380705630348075 [Eh]
	-----------------------------------------------------------



Properties will be evaluated at  -0.000000,   0.000000,   0.000000 [a0]

Properties computed using the MP2 density matrix

  Nuclear Dipole Moment: [e a0]
     X:    -2.5956      Y:     1.6044      Z:     0.3656

  Electronic Dipole Moment: [e a0]
     X:     2.5955      Y:    -0.4854      Z:    -0.1026

  Dipole Moment: [e a0]
     X:    -0.0001      Y:     1.1190      Z:     0.2629     Total:     1.1495

  Dipole Moment: [D]
     X:    -0.0003      Y:     2.8443      Z:     0.6683     Total:     2.9217


*** tstop() called on node91.bme.utexas.edu at Mon Nov  2 16:26:52 2020
Module time:
	user time   =    1504.77 seconds =      25.08 minutes
	system time =      66.56 seconds =       1.11 minutes
	total time  =        423 seconds =       7.05 minutes
Total time:
	user time   =    1933.97 seconds =      32.23 minutes
	system time =     118.39 seconds =       1.97 minutes
	total time  =        610 seconds =      10.17 minutes

    Psi4 stopped on: Monday, 02 November 2020 04:26PM
    Psi4 wall time for execution: 0:10:10.47

*** Psi4 exiting successfully. Buy a developer a beer!
