
    -----------------------------------------------------------------------
          Psi4: An Open-Source Ab Initio Electronic Structure Package
                               Psi4 1.3.2 release

                         Git: Rev {HEAD} ecbda83 


    R. M. Parrish, L. A. Burns, D. G. A. Smith, A. C. Simmonett,
    A. E. DePrince III, E. G. Hohenstein, U. Bozkaya, A. Yu. Sokolov,
    R. Di Remigio, R. M. Richard, J. F. Gonthier, A. M. James,
    H. R. McAlexander, A. Kumar, M. Saitow, X. Wang, B. P. Pritchard,
    P. Verma, H. F. Schaefer III, K. Patkowski, R. A. King, E. F. Valeev,
    F. A. Evangelista, J. M. Turney, T. D. Crawford, and C. D. Sherrill,
    J. Chem. Theory Comput. 13(7) pp 3185--3197 (2017).
    (doi: 10.1021/acs.jctc.7b00174)


                         Additional Contributions by
    P. Kraus, H. Kruse, M. H. Lechner, M. C. Schieber, R. A. Shaw,
    A. Alenaizan, R. Galvelis, Z. L. Glick, S. Lehtola, and J. P. Misiewicz

    -----------------------------------------------------------------------


    Psi4 started on: Friday, 06 November 2020 06:38AM

    Process ID: 19481
    Host:       node90.bme.utexas.edu
    PSIDATADIR: /home/xy3866/psi4conda/share/psi4
    Memory:     500.0 MiB
    Threads:    8
    
  ==> Input File <==

--------------------------------------------------------------------------
#psi4
#
memory 32 gb

molecule  {
0 1
  S        1.8142300     0.7226310    -0.3411240
  O       -1.8432130    -0.9348080    -0.8000930
  O        0.4941690    -1.0618130     1.1146640
  C       -0.8273310     0.8335030     0.4756360
  C       -3.3832440     0.5955310     0.2374230
  C       -1.9781820     0.1145481    -0.0575959
  C        0.4326040    -0.0039200     0.5084100
  C       -4.5634450    -0.2277114    -0.2531268
  C        3.0576300    -0.5565920    -0.0082180
  C        4.4432860    -0.0468870    -0.3740170
  H       -0.6942050     1.7459430    -0.1201930
  H       -1.0474180     1.1506300     1.5016930
  H       -3.4528060     0.7235440     1.3254800
  H       -3.4442640     1.6111560    -0.1826160
  H       -5.4818800     0.1657790    -0.0500790
  H       -4.4326880    -0.4035450    -1.3660960
  H       -4.4661600    -1.2732880     0.1669010
  H        2.9964590    -0.8086780     1.0500210
  H        2.8025100    -1.4530070    -0.5759610
  H        4.5013120     0.2245390    -1.4310650
  H        4.7086350     0.8297180     0.2214350
  H        5.1861620    -0.8265290    -0.1846820
units angstrom
no_reorient  #important for SAPT in psi4, default
symmetry c1  #important for SAPT in psi4, default
}

set PROPERTIES_ORIGIN ["COM"]
properties('MP2/aug-cc-pvtz', properties = ['dipole'])
--------------------------------------------------------------------------

  Memory set to  29.802 GiB by Python driver.
    SCF Algorithm Type (re)set to DF.

*** tstart() called on node90.bme.utexas.edu
*** at Fri Nov  6 06:38:32 2020

   => Loading Basis Set <=

    Name: AUG-CC-PVTZ
    Role: ORBITAL
    Keyword: BASIS
    atoms 1     entry S          line   902 file /home/xy3866/psi4conda/share/psi4/basis/aug-cc-pvtz.gbs 
    atoms 2-3   entry O          line   327 file /home/xy3866/psi4conda/share/psi4/basis/aug-cc-pvtz.gbs 
    atoms 4-10  entry C          line   235 file /home/xy3866/psi4conda/share/psi4/basis/aug-cc-pvtz.gbs 
    atoms 11-22 entry H          line    36 file /home/xy3866/psi4conda/share/psi4/basis/aug-cc-pvtz.gbs 


         ---------------------------------------------------------
                                   SCF
               by Justin Turney, Rob Parrish, Andy Simmonett
                          and Daniel G. A. Smith
                              RHF Reference
                        8 Threads,  30517 MiB Core
         ---------------------------------------------------------

  ==> Geometry <==

    Molecular point group: c1
    Full point group: C1

    Geometry (in Angstrom), charge = 0, multiplicity = 1:

       Center              X                  Y                   Z               Mass       
    ------------   -----------------  -----------------  -----------------  -----------------
         S            1.815753096852     0.714075578767    -0.346277488309    31.972071174400
         O           -1.841689903148    -0.943363421233    -0.805246488309    15.994914619570
         O            0.495692096852    -1.070368421233     1.109510511691    15.994914619570
         C           -0.825807903148     0.824947578767     0.470482511691    12.000000000000
         C           -3.381720903148     0.586975578767     0.232269511691    12.000000000000
         C           -1.976658903148     0.105992678767    -0.062749388309    12.000000000000
         C            0.434127096852    -0.012475421233     0.503256511691    12.000000000000
         C           -4.561921903148    -0.236266821233    -0.258280288309    12.000000000000
         C            3.059153096852    -0.565147421233    -0.013371488309    12.000000000000
         C            4.444809096852    -0.055442421233    -0.379170488309    12.000000000000
         H           -0.692681903148     1.737387578767    -0.125346488309     1.007825032230
         H           -1.045894903148     1.142074578767     1.496539511691     1.007825032230
         H           -3.451282903148     0.714988578767     1.320326511691     1.007825032230
         H           -3.442740903148     1.602600578767    -0.187769488309     1.007825032230
         H           -5.480356903148     0.157223578767    -0.055232488309     1.007825032230
         H           -4.431164903148    -0.412100421233    -1.371249488309     1.007825032230
         H           -4.464636903148    -1.281843421233     0.161747511691     1.007825032230
         H            2.997982096852    -0.817233421233     1.044867511691     1.007825032230
         H            2.804033096852    -1.461562421233    -0.581114488309     1.007825032230
         H            4.502835096852     0.215983578767    -1.436218488309     1.007825032230
         H            4.710158096852     0.821162578767     0.216281511691     1.007825032230
         H            5.187685096852    -0.835084421233    -0.189835488309     1.007825032230

  Running in c1 symmetry.

  Rotational constants: A =      0.12799  B =      0.01415  C =      0.01382 [cm^-1]
  Rotational constants: A =   3837.02182  B =    424.18890  C =    414.17363 [MHz]
  Nuclear repulsion =  602.710242693108967

  Charge       = 0
  Multiplicity = 1
  Electrons    = 86
  Nalpha       = 43
  Nbeta        = 43

  ==> Algorithm <==

  SCF Algorithm Type is DF.
  DIIS enabled.
  MOM disabled.
  Fractional occupation disabled.
  Guess Type is SAD.
  Energy threshold   = 1.00e-10
  Density threshold  = 1.00e-10
  Integral threshold = 0.00e+00

  ==> Primary Basis <==

  Basis Set: AUG-CC-PVTZ
    Blend: AUG-CC-PVTZ
    Number of shells: 250
    Number of basis function: 740
    Number of Cartesian functions: 854
    Spherical Harmonics?: true
    Max angular momentum: 3

   => Loading Basis Set <=

    Name: (AUG-CC-PVTZ AUX)
    Role: JKFIT
    Keyword: DF_BASIS_SCF
    atoms 1     entry S          line   730 file /home/xy3866/psi4conda/share/psi4/basis/aug-cc-pvtz-jkfit.gbs 
    atoms 2-3   entry O          line   286 file /home/xy3866/psi4conda/share/psi4/basis/aug-cc-pvtz-jkfit.gbs 
    atoms 4-10  entry C          line   162 file /home/xy3866/psi4conda/share/psi4/basis/aug-cc-pvtz-jkfit.gbs 
    atoms 11-22 entry H          line    70 file /home/xy3866/psi4conda/share/psi4/basis/aug-cc-pvtz-jkfit.gbs 

  ==> Pre-Iterations <==

   -------------------------------------------------------
    Irrep   Nso     Nmo     Nalpha   Nbeta   Ndocc  Nsocc
   -------------------------------------------------------
     A        740     740       0       0       0       0
   -------------------------------------------------------
    Total     740     740      43      43      43       0
   -------------------------------------------------------

  ==> Integral Setup <==

  DFHelper Memory: AOs need 5.860 GiB; user supplied 22.352 GiB. Using in-core AOs.

  ==> MemDFJK: Density-Fitted J/K Matrices <==

    J tasked:                   Yes
    K tasked:                   Yes
    wK tasked:                   No
    OpenMP threads:               8
    Memory [MiB]:             22888
    Algorithm:                 Disk
    Schwarz Cutoff:           1E-12
    Mask sparsity (%):      14.5446
    Fitting Condition:        1E-10

   => Auxiliary Basis Set <=

  Basis Set: (AUG-CC-PVTZ AUX)
    Blend: AUG-CC-PVTZ-JKFIT
    Number of shells: 480
    Number of basis function: 1634
    Number of Cartesian functions: 2019
    Spherical Harmonics?: true
    Max angular momentum: 4

  Minimum eigenvalue in the overlap matrix is 3.3062384156E-06.
  Using Symmetric Orthogonalization.

  SCF Guess: Superposition of Atomic Densities via on-the-fly atomic UHF.

  ==> Iterations <==

                           Total Energy        Delta E     RMS |[F,P]|

   @DF-RHF iter SAD:  -818.24340432648387   -8.18243e+02   0.00000e+00 
   @DF-RHF iter   1:  -819.05921546281195   -8.15811e-01   1.16453e-03 DIIS
   @DF-RHF iter   2:  -819.32512432534736   -2.65909e-01   8.10141e-04 DIIS
   @DF-RHF iter   3:  -819.45780662845505   -1.32682e-01   1.69837e-04 DIIS
   @DF-RHF iter   4:  -819.46757636489679   -9.76974e-03   6.25169e-05 DIIS
   @DF-RHF iter   5:  -819.46951463765186   -1.93827e-03   1.43445e-05 DIIS
   @DF-RHF iter   6:  -819.46970642213967   -1.91784e-04   7.29998e-06 DIIS
   @DF-RHF iter   7:  -819.46974889419789   -4.24721e-05   3.77101e-06 DIIS
   @DF-RHF iter   8:  -819.46975935537785   -1.04612e-05   1.64601e-06 DIIS
   @DF-RHF iter   9:  -819.46976161306009   -2.25768e-06   4.34764e-07 DIIS
   @DF-RHF iter  10:  -819.46976174753695   -1.34477e-07   1.31688e-07 DIIS
   @DF-RHF iter  11:  -819.46976175956524   -1.20283e-08   5.18533e-08 DIIS
   @DF-RHF iter  12:  -819.46976176146325   -1.89800e-09   1.81505e-08 DIIS
   @DF-RHF iter  13:  -819.46976176175326   -2.90015e-10   5.89269e-09 DIIS
   @DF-RHF iter  14:  -819.46976176178987   -3.66072e-11   3.05865e-09 DIIS
   @DF-RHF iter  15:  -819.46976176180101   -1.11413e-11   1.26497e-09 DIIS
   @DF-RHF iter  16:  -819.46976176180476   -3.75167e-12   6.01455e-10 DIIS
   @DF-RHF iter  17:  -819.46976176180499   -2.27374e-13   2.88821e-10 DIIS
   @DF-RHF iter  18:  -819.46976176179999    5.00222e-12   1.26978e-10 DIIS
   @DF-RHF iter  19:  -819.46976176180419   -4.20641e-12   6.63641e-11 DIIS
  Energy and wave function converged.


  ==> Post-Iterations <==

    Orbital Energies [Eh]
    ---------------------

    Doubly Occupied:                                                      

       1A    -91.974712     2A    -20.557859     3A    -20.549752  
       4A    -11.371568     5A    -11.351981     6A    -11.271734  
       7A    -11.264393     8A    -11.252570     9A    -11.232924  
      10A    -11.223428    11A     -8.976284    12A     -6.657438  
      13A     -6.656312    14A     -6.655693    15A     -1.396439  
      16A     -1.344174    17A     -1.101659    18A     -1.082556  
      19A     -1.047240    20A     -0.977564    21A     -0.901148  
      22A     -0.841643    23A     -0.767435    24A     -0.727379  
      25A     -0.676575    26A     -0.671278    27A     -0.651687  
      28A     -0.636761    29A     -0.632076    30A     -0.599176  
      31A     -0.593705    32A     -0.563897    33A     -0.560287  
      34A     -0.538453    35A     -0.526733    36A     -0.511445  
      37A     -0.506254    38A     -0.491569    39A     -0.468281  
      40A     -0.462880    41A     -0.433543    42A     -0.412387  
      43A     -0.373246  

    Virtual:                                                              

      44A      0.023838    45A      0.029767    46A      0.035016  
      47A      0.037075    48A      0.045399    49A      0.046656  
      50A      0.048069    51A      0.059694    52A      0.062074  
      53A      0.065576    54A      0.068957    55A      0.071678  
      56A      0.089178    57A      0.100814    58A      0.102379  
      59A      0.106785    60A      0.109928    61A      0.112426  
      62A      0.114582    63A      0.119531    64A      0.122030  
      65A      0.124366    66A      0.127383    67A      0.130388  
      68A      0.135231    69A      0.137204    70A      0.139479  
      71A      0.143258    72A      0.147386    73A      0.152135  
      74A      0.156434    75A      0.158544    76A      0.168919  
      77A      0.170316    78A      0.174312    79A      0.184662  
      80A      0.190136    81A      0.195043    82A      0.198918  
      83A      0.205680    84A      0.210663    85A      0.215439  
      86A      0.219928    87A      0.228367    88A      0.232490  
      89A      0.236059    90A      0.243558    91A      0.246081  
      92A      0.247423    93A      0.253308    94A      0.257981  
      95A      0.264306    96A      0.270864    97A      0.274511  
      98A      0.284126    99A      0.286048   100A      0.287557  
     101A      0.290383   102A      0.292650   103A      0.299872  
     104A      0.302628   105A      0.307794   106A      0.309611  
     107A      0.318324   108A      0.328335   109A      0.332649  
     110A      0.335191   111A      0.339862   112A      0.342230  
     113A      0.343737   114A      0.350302   115A      0.353842  
     116A      0.358802   117A      0.360539   118A      0.365983  
     119A      0.369394   120A      0.371778   121A      0.374928  
     122A      0.377770   123A      0.388653   124A      0.391858  
     125A      0.394136   126A      0.398613   127A      0.403458  
     128A      0.407451   129A      0.408934   130A      0.412286  
     131A      0.415684   132A      0.420579   133A      0.425878  
     134A      0.429498   135A      0.433935   136A      0.435307  
     137A      0.440339   138A      0.444328   139A      0.447541  
     140A      0.448297   141A      0.452360   142A      0.453943  
     143A      0.464170   144A      0.467422   145A      0.469881  
     146A      0.471054   147A      0.476325   148A      0.483695  
     149A      0.490168   150A      0.493002   151A      0.494106  
     152A      0.496842   153A      0.502020   154A      0.505523  
     155A      0.509863   156A      0.512297   157A      0.519950  
     158A      0.521705   159A      0.525233   160A      0.530852  
     161A      0.536436   162A      0.537278   163A      0.539918  
     164A      0.548316   165A      0.550712   166A      0.555485  
     167A      0.560462   168A      0.565334   169A      0.572563  
     170A      0.575589   171A      0.581465   172A      0.586034  
     173A      0.594538   174A      0.602702   175A      0.609440  
     176A      0.612397   177A      0.619953   178A      0.630115  
     179A      0.632251   180A      0.634532   181A      0.645991  
     182A      0.649273   183A      0.668288   184A      0.668724  
     185A      0.672899   186A      0.687541   187A      0.692124  
     188A      0.698686   189A      0.704403   190A      0.711627  
     191A      0.731782   192A      0.737416   193A      0.741392  
     194A      0.749969   195A      0.762163   196A      0.780365  
     197A      0.782042   198A      0.786165   199A      0.789725  
     200A      0.796024   201A      0.803738   202A      0.806358  
     203A      0.815999   204A      0.821159   205A      0.826458  
     206A      0.830389   207A      0.833817   208A      0.838956  
     209A      0.845133   210A      0.850084   211A      0.852611  
     212A      0.858494   213A      0.864142   214A      0.873163  
     215A      0.875082   216A      0.875956   217A      0.878740  
     218A      0.881010   219A      0.893554   220A      0.900319  
     221A      0.900825   222A      0.904229   223A      0.905899  
     224A      0.914929   225A      0.917012   226A      0.921061  
     227A      0.924583   228A      0.928823   229A      0.936405  
     230A      0.939648   231A      0.944366   232A      0.952544  
     233A      0.954473   234A      0.956950   235A      0.963340  
     236A      0.968866   237A      0.976325   238A      0.977232  
     239A      0.981216   240A      0.988392   241A      0.993392  
     242A      0.998429   243A      1.006155   244A      1.013334  
     245A      1.017198   246A      1.021279   247A      1.023308  
     248A      1.032722   249A      1.037896   250A      1.040880  
     251A      1.047368   252A      1.051324   253A      1.056707  
     254A      1.062650   255A      1.064807   256A      1.067676  
     257A      1.071510   258A      1.078276   259A      1.084676  
     260A      1.087136   261A      1.092818   262A      1.099953  
     263A      1.104924   264A      1.114740   265A      1.120056  
     266A      1.122466   267A      1.132247   268A      1.142780  
     269A      1.147920   270A      1.151425   271A      1.152473  
     272A      1.159086   273A      1.161677   274A      1.166497  
     275A      1.167845   276A      1.179007   277A      1.182236  
     278A      1.188374   279A      1.194619   280A      1.198461  
     281A      1.205443   282A      1.207430   283A      1.214905  
     284A      1.227797   285A      1.235752   286A      1.241008  
     287A      1.244538   288A      1.253901   289A      1.257814  
     290A      1.267696   291A      1.273104   292A      1.280391  
     293A      1.281821   294A      1.286234   295A      1.298960  
     296A      1.304349   297A      1.307054   298A      1.321611  
     299A      1.322381   300A      1.331677   301A      1.339774  
     302A      1.347016   303A      1.352941   304A      1.365060  
     305A      1.371815   306A      1.380584   307A      1.383102  
     308A      1.400378   309A      1.411041   310A      1.414824  
     311A      1.418284   312A      1.428716   313A      1.439301  
     314A      1.444434   315A      1.451384   316A      1.458249  
     317A      1.461521   318A      1.470958   319A      1.488162  
     320A      1.489471   321A      1.499195   322A      1.504416  
     323A      1.508598   324A      1.517421   325A      1.528719  
     326A      1.537995   327A      1.544021   328A      1.552611  
     329A      1.555025   330A      1.566834   331A      1.576571  
     332A      1.584058   333A      1.596247   334A      1.605084  
     335A      1.611519   336A      1.618039   337A      1.622606  
     338A      1.635017   339A      1.639119   340A      1.641234  
     341A      1.648571   342A      1.650661   343A      1.655124  
     344A      1.657234   345A      1.671026   346A      1.674657  
     347A      1.676579   348A      1.685051   349A      1.697670  
     350A      1.706197   351A      1.707905   352A      1.710574  
     353A      1.719474   354A      1.724233   355A      1.730709  
     356A      1.735377   357A      1.739965   358A      1.745321  
     359A      1.757444   360A      1.763684   361A      1.768384  
     362A      1.771336   363A      1.780474   364A      1.794268  
     365A      1.802940   366A      1.812570   367A      1.820896  
     368A      1.832356   369A      1.834237   370A      1.839263  
     371A      1.843058   372A      1.849195   373A      1.857212  
     374A      1.863476   375A      1.867145   376A      1.876567  
     377A      1.881959   378A      1.898429   379A      1.902873  
     380A      1.909275   381A      1.923772   382A      1.928757  
     383A      1.938846   384A      1.944400   385A      1.953451  
     386A      1.962471   387A      1.965306   388A      1.969144  
     389A      1.978672   390A      1.984579   391A      1.986755  
     392A      2.008568   393A      2.021226   394A      2.023399  
     395A      2.026329   396A      2.036292   397A      2.043981  
     398A      2.048546   399A      2.059691   400A      2.072632  
     401A      2.088298   402A      2.101560   403A      2.105040  
     404A      2.115575   405A      2.124040   406A      2.141167  
     407A      2.153200   408A      2.172516   409A      2.186407  
     410A      2.191778   411A      2.202191   412A      2.217879  
     413A      2.224445   414A      2.233219   415A      2.243428  
     416A      2.248809   417A      2.251985   418A      2.259981  
     419A      2.264226   420A      2.267556   421A      2.289496  
     422A      2.290164   423A      2.310461   424A      2.313140  
     425A      2.318715   426A      2.342808   427A      2.343740  
     428A      2.355598   429A      2.369961   430A      2.388035  
     431A      2.404518   432A      2.407267   433A      2.412099  
     434A      2.421685   435A      2.425728   436A      2.445355  
     437A      2.466547   438A      2.468878   439A      2.480363  
     440A      2.509817   441A      2.528063   442A      2.540677  
     443A      2.555289   444A      2.559234   445A      2.564491  
     446A      2.574055   447A      2.583737   448A      2.619740  
     449A      2.621331   450A      2.626967   451A      2.645759  
     452A      2.653715   453A      2.682752   454A      2.684909  
     455A      2.704007   456A      2.711865   457A      2.723568  
     458A      2.741155   459A      2.752934   460A      2.785453  
     461A      2.788759   462A      2.840145   463A      2.849449  
     464A      2.863272   465A      2.878054   466A      2.887633  
     467A      2.895290   468A      2.907034   469A      2.945116  
     470A      2.962328   471A      2.966134   472A      2.983505  
     473A      3.001409   474A      3.023661   475A      3.040832  
     476A      3.050301   477A      3.090780   478A      3.093289  
     479A      3.116327   480A      3.156724   481A      3.181898  
     482A      3.193614   483A      3.234244   484A      3.270162  
     485A      3.286156   486A      3.289338   487A      3.298014  
     488A      3.327085   489A      3.352790   490A      3.365341  
     491A      3.393687   492A      3.405760   493A      3.430154  
     494A      3.433154   495A      3.435973   496A      3.445635  
     497A      3.455883   498A      3.466406   499A      3.475001  
     500A      3.482866   501A      3.496150   502A      3.518321  
     503A      3.546948   504A      3.556181   505A      3.581334  
     506A      3.590667   507A      3.591621   508A      3.596315  
     509A      3.608736   510A      3.626821   511A      3.643267  
     512A      3.651103   513A      3.661851   514A      3.671450  
     515A      3.682081   516A      3.690943   517A      3.699181  
     518A      3.703749   519A      3.712632   520A      3.715141  
     521A      3.742852   522A      3.749327   523A      3.751783  
     524A      3.757063   525A      3.768586   526A      3.772318  
     527A      3.793799   528A      3.799013   529A      3.808894  
     530A      3.809654   531A      3.829261   532A      3.837304  
     533A      3.846419   534A      3.857518   535A      3.860485  
     536A      3.871485   537A      3.885389   538A      3.896940  
     539A      3.910215   540A      3.921530   541A      3.932795  
     542A      3.935335   543A      3.942838   544A      3.946208  
     545A      3.963766   546A      3.982075   547A      3.984766  
     548A      3.995219   549A      4.008070   550A      4.019397  
     551A      4.027009   552A      4.049363   553A      4.051724  
     554A      4.055344   555A      4.068657   556A      4.076447  
     557A      4.081150   558A      4.097489   559A      4.119607  
     560A      4.123579   561A      4.138764   562A      4.152696  
     563A      4.157696   564A      4.169092   565A      4.175572  
     566A      4.190890   567A      4.194168   568A      4.202735  
     569A      4.208332   570A      4.217139   571A      4.225057  
     572A      4.233694   573A      4.235234   574A      4.246122  
     575A      4.260901   576A      4.272427   577A      4.288084  
     578A      4.292674   579A      4.311249   580A      4.320510  
     581A      4.347158   582A      4.356287   583A      4.378809  
     584A      4.384864   585A      4.390817   586A      4.411358  
     587A      4.423898   588A      4.439700   589A      4.447059  
     590A      4.467204   591A      4.477407   592A      4.494880  
     593A      4.502094   594A      4.524123   595A      4.549484  
     596A      4.560077   597A      4.584636   598A      4.599374  
     599A      4.608213   600A      4.614307   601A      4.627006  
     602A      4.631378   603A      4.657334   604A      4.667286  
     605A      4.672652   606A      4.687408   607A      4.704898  
     608A      4.723371   609A      4.733367   610A      4.743392  
     611A      4.785486   612A      4.801173   613A      4.810716  
     614A      4.823447   615A      4.830676   616A      4.838065  
     617A      4.842265   618A      4.850353   619A      4.858032  
     620A      4.877067   621A      4.881960   622A      4.899132  
     623A      4.933600   624A      4.939224   625A      4.947334  
     626A      4.964744   627A      4.994256   628A      4.995575  
     629A      5.016955   630A      5.035595   631A      5.052362  
     632A      5.086767   633A      5.096460   634A      5.099527  
     635A      5.103863   636A      5.131915   637A      5.135667  
     638A      5.149424   639A      5.157496   640A      5.176905  
     641A      5.183452   642A      5.191927   643A      5.205523  
     644A      5.248878   645A      5.254335   646A      5.262830  
     647A      5.266705   648A      5.295995   649A      5.297830  
     650A      5.318304   651A      5.342472   652A      5.347917  
     653A      5.366209   654A      5.380309   655A      5.391269  
     656A      5.395126   657A      5.426563   658A      5.436538  
     659A      5.457655   660A      5.473298   661A      5.511453  
     662A      5.524103   663A      5.531304   664A      5.555017  
     665A      5.572898   666A      5.589308   667A      5.611758  
     668A      5.630254   669A      5.668907   670A      5.672036  
     671A      5.705182   672A      5.741121   673A      5.748693  
     674A      5.779498   675A      5.793624   676A      5.807418  
     677A      5.845688   678A      5.863762   679A      5.884515  
     680A      5.955673   681A      5.981268   682A      6.009106  
     683A      6.026513   684A      6.031077   685A      6.062797  
     686A      6.096516   687A      6.103158   688A      6.123791  
     689A      6.137120   690A      6.173776   691A      6.204390  
     692A      6.208667   693A      6.269169   694A      6.339847  
     695A      6.374357   696A      6.395247   697A      6.463952  
     698A      6.470997   699A      6.525421   700A      6.702758  
     701A      6.732231   702A      6.766790   703A      6.770171  
     704A      6.778574   705A      6.801446   706A      6.807896  
     707A      6.820934   708A      6.851812   709A      6.866994  
     710A      6.880646   711A      7.046270   712A      7.070518  
     713A      7.087213   714A      7.105618   715A      7.167780  
     716A      7.182551   717A      7.397113   718A      7.415972  
     719A      7.422141   720A      7.440319   721A      7.498108  
     722A      7.499806   723A      7.614368   724A      7.660049  
     725A      7.712335   726A      7.728470   727A      7.875417  
     728A      7.905445   729A      8.005841   730A      8.054054  
     731A      8.374292   732A     14.428917   733A     15.828973  
     734A     16.429628   735A     17.282558   736A     17.413851  
     737A     18.122854   738A     18.369938   739A     18.902749  
     740A     20.469967  

    Final Occupation by Irrep:
              A 
    DOCC [    43 ]

  @DF-RHF Final Energy:  -819.46976176180419

   => Energetics <=

    Nuclear Repulsion Energy =            602.7102426931089667
    One-Electron Energy =               -2321.3717807327161609
    Two-Electron Energy =                 899.1917762778030010
    Total Energy =                       -819.4697617618041932

Computation Completed

*** tstop() called on node90.bme.utexas.edu at Fri Nov  6 06:42:43 2020
Module time:
	user time   =     438.50 seconds =       7.31 minutes
	system time =      51.81 seconds =       0.86 minutes
	total time  =        251 seconds =       4.18 minutes
Total time:
	user time   =     438.50 seconds =       7.31 minutes
	system time =      51.81 seconds =       0.86 minutes
	total time  =        251 seconds =       4.18 minutes
   => Loading Basis Set <=

    Name: (AUG-CC-PVTZ AUX)
    Role: RIFIT
    Keyword: DF_BASIS_MP2
    atoms 1     entry S          line   666 file /home/xy3866/psi4conda/share/psi4/basis/aug-cc-pvtz-ri.gbs 
    atoms 2-3   entry O          line   264 file /home/xy3866/psi4conda/share/psi4/basis/aug-cc-pvtz-ri.gbs 
    atoms 4-10  entry C          line   148 file /home/xy3866/psi4conda/share/psi4/basis/aug-cc-pvtz-ri.gbs 
    atoms 11-22 entry H          line    30 file /home/xy3866/psi4conda/share/psi4/basis/aug-cc-pvtz-ri.gbs 


*** tstart() called on node90.bme.utexas.edu
*** at Fri Nov  6 06:42:43 2020


  //>>>>>>>>>>>>>>>>>>>>>>>>>>>>>>>>>>>//
  //               DFMP2               //
  //<<<<<<<<<<<<<<<<<<<<<<<<<<<<<<<<<<<//

	 --------------------------------------------------------
	                          DF-MP2                         
	      2nd-Order Density-Fitted Moller-Plesset Theory     
	              RMP2 Wavefunction,   8 Threads             
	                                                         
	        Rob Parrish, Justin Turney, Andy Simmonett,      
	           Ed Hohenstein, and C. David Sherrill          
	 --------------------------------------------------------

   => Auxiliary Basis Set <=

  Basis Set: (AUG-CC-PVTZ AUX)
    Blend: AUG-CC-PVTZ-RI
    Number of shells: 457
    Number of basis function: 1653
    Number of Cartesian functions: 2075
    Spherical Harmonics?: true
    Max angular momentum: 4

	 --------------------------------------------------------
	                 NBF =   740, NAUX =  1653
	 --------------------------------------------------------
	   CLASS    FOCC     OCC    AOCC    AVIR     VIR    FVIR
	   PAIRS       0      43      43     697     697       0
	 --------------------------------------------------------

  DFHelper Memory: AOs need 5.860 GiB; user supplied 22.352 GiB. Using in-core AOs.


         ------------------------------------------------------------
                                     CPHF                           
                                  Rob Parrish                       
         ------------------------------------------------------------

  ==> Geometry <==

    Molecular point group: c1
    Full point group: C1

    Geometry (in Angstrom), charge = 0, multiplicity = 1:

       Center              X                  Y                   Z               Mass       
    ------------   -----------------  -----------------  -----------------  -----------------
         S            1.815753096852     0.714075578767    -0.346277488309    31.972071174400
         O           -1.841689903148    -0.943363421233    -0.805246488309    15.994914619570
         O            0.495692096852    -1.070368421233     1.109510511691    15.994914619570
         C           -0.825807903148     0.824947578767     0.470482511691    12.000000000000
         C           -3.381720903148     0.586975578767     0.232269511691    12.000000000000
         C           -1.976658903148     0.105992678767    -0.062749388309    12.000000000000
         C            0.434127096852    -0.012475421233     0.503256511691    12.000000000000
         C           -4.561921903148    -0.236266821233    -0.258280288309    12.000000000000
         C            3.059153096852    -0.565147421233    -0.013371488309    12.000000000000
         C            4.444809096852    -0.055442421233    -0.379170488309    12.000000000000
         H           -0.692681903148     1.737387578767    -0.125346488309     1.007825032230
         H           -1.045894903148     1.142074578767     1.496539511691     1.007825032230
         H           -3.451282903148     0.714988578767     1.320326511691     1.007825032230
         H           -3.442740903148     1.602600578767    -0.187769488309     1.007825032230
         H           -5.480356903148     0.157223578767    -0.055232488309     1.007825032230
         H           -4.431164903148    -0.412100421233    -1.371249488309     1.007825032230
         H           -4.464636903148    -1.281843421233     0.161747511691     1.007825032230
         H            2.997982096852    -0.817233421233     1.044867511691     1.007825032230
         H            2.804033096852    -1.461562421233    -0.581114488309     1.007825032230
         H            4.502835096852     0.215983578767    -1.436218488309     1.007825032230
         H            4.710158096852     0.821162578767     0.216281511691     1.007825032230
         H            5.187685096852    -0.835084421233    -0.189835488309     1.007825032230

  Nuclear repulsion =  602.710242693108967
  Reference energy  = -819.469761761804193

  ==> Basis Set <==

  Basis Set: AUG-CC-PVTZ
    Blend: AUG-CC-PVTZ
    Number of shells: 250
    Number of basis function: 740
    Number of Cartesian functions: 854
    Spherical Harmonics?: true
    Max angular momentum: 3

  ==> CGRSolver (by Rob Parrish) <==

   Number of roots    =         1
   Preconditioning    =    JACOBI
   Convergence cutoff =     1E-06
   Maximum iterations =       100

  ==> CPHFRHamiltonian (by Rob Parrish) <== 

  ==> MemDFJK: Density-Fitted J/K Matrices <==

    J tasked:                   Yes
    K tasked:                   Yes
    wK tasked:                   No
    OpenMP threads:               8
    Memory [MiB]:             22888
    Algorithm:                 Disk
    Schwarz Cutoff:           1E-12
    Mask sparsity (%):      14.5446
    Fitting Condition:        1E-10

   => Auxiliary Basis Set <=

  Basis Set: (AUG-CC-PVTZ AUX)
    Blend: AUG-CC-PVTZ-JKFIT
    Number of shells: 480
    Number of basis function: 1634
    Number of Cartesian functions: 2019
    Spherical Harmonics?: true
    Max angular momentum: 4

  ==> CPHF Iterations <==

  => Iterations <=

             Iter  Converged  Remaining    Residual
  CGR           1          0          1   1.353E-01
  CGR           2          0          1   4.394E-02
  CGR           3          0          1   1.712E-02
  CGR           4          0          1   6.862E-03
  CGR           5          0          1   2.732E-03
  CGR           6          0          1   1.221E-03
  CGR           7          0          1   4.680E-04
  CGR           8          0          1   1.935E-04
  CGR           9          0          1   6.826E-05
  CGR          10          0          1   2.760E-05
  CGR          11          0          1   1.250E-05
  CGR          12          0          1   6.200E-06
  CGR          13          0          1   2.338E-06
  CGR          14          1          0   6.709E-07

    CGRSolver converged.

	-----------------------------------------------------------
	 ==================> DF-MP2 Energies <==================== 
	-----------------------------------------------------------
	 Reference Energy          =    -819.4697617618041932 [Eh]
	 Singles Energy            =      -0.0000000000000000 [Eh]
	 Same-Spin Energy          =      -0.4866722270046921 [Eh]
	 Opposite-Spin Energy      =      -1.5763642761866594 [Eh]
	 Correlation Energy        =      -2.0630365031913516 [Eh]
	 Total Energy              =    -821.5327982649955629 [Eh]
	-----------------------------------------------------------
	 ================> DF-SCS-MP2 Energies <================== 
	-----------------------------------------------------------
	 SCS Same-Spin Scale       =       0.3333333333333333 [-]
	 SCS Opposite-Spin Scale   =       1.2000000000000000 [-]
	 SCS Same-Spin Energy      =      -0.1622240756682307 [Eh]
	 SCS Opposite-Spin Energy  =      -1.8916371314239913 [Eh]
	 SCS Correlation Energy    =      -2.0538612070922220 [Eh]
	 SCS Total Energy          =    -821.5236229688964613 [Eh]
	-----------------------------------------------------------



Properties will be evaluated at   0.000000,  -0.000000,   0.000000 [a0]

Properties computed using the MP2 density matrix

  Nuclear Dipole Moment: [e a0]
     X:    -2.5892      Y:     1.4937      Z:     0.2670

  Electronic Dipole Moment: [e a0]
     X:     2.6993      Y:    -0.2998      Z:     0.0629

  Dipole Moment: [e a0]
     X:     0.1101      Y:     1.1939      Z:     0.3299     Total:     1.2435

  Dipole Moment: [D]
     X:     0.2799      Y:     3.0346      Z:     0.8386     Total:     3.1608


*** tstop() called on node90.bme.utexas.edu at Fri Nov  6 06:47:00 2020
Module time:
	user time   =    1499.76 seconds =      25.00 minutes
	system time =      61.46 seconds =       1.02 minutes
	total time  =        257 seconds =       4.28 minutes
Total time:
	user time   =    1939.53 seconds =      32.33 minutes
	system time =     113.32 seconds =       1.89 minutes
	total time  =        508 seconds =       8.47 minutes

    Psi4 stopped on: Friday, 06 November 2020 06:47AM
    Psi4 wall time for execution: 0:08:28.04

*** Psi4 exiting successfully. Buy a developer a beer!
