
    -----------------------------------------------------------------------
          Psi4: An Open-Source Ab Initio Electronic Structure Package
                               Psi4 1.3.2 release

                         Git: Rev {HEAD} ecbda83 


    R. M. Parrish, L. A. Burns, D. G. A. Smith, A. C. Simmonett,
    A. E. DePrince III, E. G. Hohenstein, U. Bozkaya, A. Yu. Sokolov,
    R. Di Remigio, R. M. Richard, J. F. Gonthier, A. M. James,
    H. R. McAlexander, A. Kumar, M. Saitow, X. Wang, B. P. Pritchard,
    P. Verma, H. F. Schaefer III, K. Patkowski, R. A. King, E. F. Valeev,
    F. A. Evangelista, J. M. Turney, T. D. Crawford, and C. D. Sherrill,
    J. Chem. Theory Comput. 13(7) pp 3185--3197 (2017).
    (doi: 10.1021/acs.jctc.7b00174)


                         Additional Contributions by
    P. Kraus, H. Kruse, M. H. Lechner, M. C. Schieber, R. A. Shaw,
    A. Alenaizan, R. Galvelis, Z. L. Glick, S. Lehtola, and J. P. Misiewicz

    -----------------------------------------------------------------------


    Psi4 started on: Wednesday, 04 November 2020 04:15AM

    Process ID: 27371
    Host:       node100.bme.utexas.edu
    PSIDATADIR: /home/xy3866/psi4conda/share/psi4
    Memory:     500.0 MiB
    Threads:    8
    
  ==> Input File <==

--------------------------------------------------------------------------
#psi4
#
memory 32 gb

molecule  {
0 1
  N        0.0402460     1.4416600     0.0000620
  C        0.0097398     0.1433320    -0.0228715
  C       -1.3400130    -0.5204670     0.0000250
  C        1.2044310    -0.7598510     0.0000030
  H       -2.1277100     0.2335740    -0.0000130
  H       -1.4495710    -1.1615970    -0.8813460
  H       -1.4493400    -1.1611390     0.8817800
  H        2.1385520    -0.1918070    -0.0030740
  H        1.1876380    -1.4127410    -0.8791240
  H        1.1905740    -1.4078120     0.8828600
  H        1.0180780     1.7593200     0.0001080
units angstrom
no_reorient  #important for SAPT in psi4, default
symmetry c1  #important for SAPT in psi4, default
}

set PROPERTIES_ORIGIN ["COM"]
properties('MP2/aug-cc-pvtz', properties = ['dipole'])
--------------------------------------------------------------------------

  Memory set to  29.802 GiB by Python driver.
    SCF Algorithm Type (re)set to DF.

*** tstart() called on node100.bme.utexas.edu
*** at Wed Nov  4 04:15:15 2020

   => Loading Basis Set <=

    Name: AUG-CC-PVTZ
    Role: ORBITAL
    Keyword: BASIS
    atoms 1    entry N          line   281 file /home/xy3866/psi4conda/share/psi4/basis/aug-cc-pvtz.gbs 
    atoms 2-4  entry C          line   235 file /home/xy3866/psi4conda/share/psi4/basis/aug-cc-pvtz.gbs 
    atoms 5-11 entry H          line    36 file /home/xy3866/psi4conda/share/psi4/basis/aug-cc-pvtz.gbs 


         ---------------------------------------------------------
                                   SCF
               by Justin Turney, Rob Parrish, Andy Simmonett
                          and Daniel G. A. Smith
                              RHF Reference
                        8 Threads,  30517 MiB Core
         ---------------------------------------------------------

  ==> Geometry <==

    Molecular point group: c1
    Full point group: C1

    Geometry (in Angstrom), charge = 0, multiplicity = 1:

       Center              X                  Y                   Z               Mass       
    ------------   -----------------  -----------------  -----------------  -----------------
         N            0.047858288997     1.386006222760     0.004830029175    14.003074004430
         C            0.017352088997     0.087678222760    -0.018103470825    12.000000000000
         C           -1.332400711003    -0.576120777240     0.004793029175    12.000000000000
         C            1.212043288997    -0.815504777240     0.004771029175    12.000000000000
         H           -2.120097711003     0.177920222760     0.004755029175     1.007825032230
         H           -1.441958711003    -1.217250777240    -0.876577970825     1.007825032230
         H           -1.441727711003    -1.216792777240     0.886548029175     1.007825032230
         H            2.146164288997    -0.247460777240     0.001694029175     1.007825032230
         H            1.195250288997    -1.468394777240    -0.874355970825     1.007825032230
         H            1.198186288997    -1.463465777240     0.887628029175     1.007825032230
         H            1.025690288997     1.703666222760     0.004876029175     1.007825032230

  Running in c1 symmetry.

  Rotational constants: A =      0.32218  B =      0.28324  C =      0.15968 [cm^-1]
  Rotational constants: A =   9658.59476  B =   8491.42694  C =   4787.19717 [MHz]
  Nuclear repulsion =  119.992836526661733

  Charge       = 0
  Multiplicity = 1
  Electrons    = 32
  Nalpha       = 16
  Nbeta        = 16

  ==> Algorithm <==

  SCF Algorithm Type is DF.
  DIIS enabled.
  MOM disabled.
  Fractional occupation disabled.
  Guess Type is SAD.
  Energy threshold   = 1.00e-10
  Density threshold  = 1.00e-10
  Integral threshold = 0.00e+00

  ==> Primary Basis <==

  Basis Set: AUG-CC-PVTZ
    Blend: AUG-CC-PVTZ
    Number of shells: 119
    Number of basis function: 345
    Number of Cartesian functions: 395
    Spherical Harmonics?: true
    Max angular momentum: 3

   => Loading Basis Set <=

    Name: (AUG-CC-PVTZ AUX)
    Role: JKFIT
    Keyword: DF_BASIS_SCF
    atoms 1    entry N          line   224 file /home/xy3866/psi4conda/share/psi4/basis/aug-cc-pvtz-jkfit.gbs 
    atoms 2-4  entry C          line   162 file /home/xy3866/psi4conda/share/psi4/basis/aug-cc-pvtz-jkfit.gbs 
    atoms 5-11 entry H          line    70 file /home/xy3866/psi4conda/share/psi4/basis/aug-cc-pvtz-jkfit.gbs 

  ==> Pre-Iterations <==

   -------------------------------------------------------
    Irrep   Nso     Nmo     Nalpha   Nbeta   Ndocc  Nsocc
   -------------------------------------------------------
     A        345     345       0       0       0       0
   -------------------------------------------------------
    Total     345     345      16      16      16       0
   -------------------------------------------------------

  ==> Integral Setup <==

  DFHelper Memory: AOs need 0.687 GiB; user supplied 22.352 GiB. Using in-core AOs.

  ==> MemDFJK: Density-Fitted J/K Matrices <==

    J tasked:                   Yes
    K tasked:                   Yes
    wK tasked:                   No
    OpenMP threads:               8
    Memory [MiB]:             22888
    Algorithm:                 Core
    Schwarz Cutoff:           1E-12
    Mask sparsity (%):       0.4268
    Fitting Condition:        1E-10

   => Auxiliary Basis Set <=

  Basis Set: (AUG-CC-PVTZ AUX)
    Blend: AUG-CC-PVTZ-JKFIT
    Number of shells: 218
    Number of basis function: 738
    Number of Cartesian functions: 909
    Spherical Harmonics?: true
    Max angular momentum: 4

  Minimum eigenvalue in the overlap matrix is 1.1068234912E-05.
  Using Symmetric Orthogonalization.

  SCF Guess: Superposition of Atomic Densities via on-the-fly atomic UHF.

  ==> Iterations <==

                           Total Energy        Delta E     RMS |[F,P]|

   @DF-RHF iter SAD:  -171.33822202524408   -1.71338e+02   0.00000e+00 
   @DF-RHF iter   1:  -171.98541290238444   -6.47191e-01   1.66353e-03 DIIS
   @DF-RHF iter   2:  -172.14267398237030   -1.57261e-01   8.23604e-04 DIIS
   @DF-RHF iter   3:  -172.17748931509956   -3.48153e-02   1.61030e-04 DIIS
   @DF-RHF iter   4:  -172.17997841467789   -2.48910e-03   8.31394e-05 DIIS
   @DF-RHF iter   5:  -172.18046229465654   -4.83880e-04   1.30025e-05 DIIS
   @DF-RHF iter   6:  -172.18048822936117   -2.59347e-05   6.64362e-06 DIIS
   @DF-RHF iter   7:  -172.18049285707585   -4.62771e-06   2.45691e-06 DIIS
   @DF-RHF iter   8:  -172.18049399103802   -1.13396e-06   6.32412e-07 DIIS
   @DF-RHF iter   9:  -172.18049407879488   -8.77569e-08   1.29334e-07 DIIS
   @DF-RHF iter  10:  -172.18049408204516   -3.25028e-09   2.97658e-08 DIIS
   @DF-RHF iter  11:  -172.18049408219522   -1.50067e-10   8.13822e-09 DIIS
   @DF-RHF iter  12:  -172.18049408220691   -1.16813e-11   2.52483e-09 DIIS
   @DF-RHF iter  13:  -172.18049408220804   -1.13687e-12   7.91359e-10 DIIS
   @DF-RHF iter  14:  -172.18049408220804    0.00000e+00   2.53167e-10 DIIS
   @DF-RHF iter  15:  -172.18049408220770    3.41061e-13   1.03984e-10 DIIS
   @DF-RHF iter  16:  -172.18049408220782   -1.13687e-13   4.57683e-11 DIIS
  Energy and wave function converged.


  ==> Post-Iterations <==

    Orbital Energies [Eh]
    ---------------------

    Doubly Occupied:                                                      

       1A    -15.542881     2A    -11.289655     3A    -11.237920  
       4A    -11.224508     5A     -1.200231     6A     -1.012543  
       7A     -0.958482     8A     -0.741043     9A     -0.648204  
      10A     -0.608809    11A     -0.604547    12A     -0.551621  
      13A     -0.539316    14A     -0.518490    15A     -0.416686  
      16A     -0.406930  

    Virtual:                                                              

      17A      0.026878    18A      0.036645    19A      0.041648  
      20A      0.044817    21A      0.060993    22A      0.062675  
      23A      0.062952    24A      0.091852    25A      0.116676  
      26A      0.118780    27A      0.124504    28A      0.127713  
      29A      0.130975    30A      0.132590    31A      0.141948  
      32A      0.145988    33A      0.154448    34A      0.156946  
      35A      0.172001    36A      0.182731    37A      0.185797  
      38A      0.193402    39A      0.223623    40A      0.232461  
      41A      0.238826    42A      0.246382    43A      0.264504  
      44A      0.270190    45A      0.297682    46A      0.312109  
      47A      0.317711    48A      0.325680    49A      0.333863  
      50A      0.339348    51A      0.342903    52A      0.351081  
      53A      0.354555    54A      0.359320    55A      0.361741  
      56A      0.363264    57A      0.369416    58A      0.383814  
      59A      0.395717    60A      0.398839    61A      0.417257  
      62A      0.419484    63A      0.424039    64A      0.429105  
      65A      0.442930    66A      0.447126    67A      0.448596  
      68A      0.461690    69A      0.471760    70A      0.484820  
      71A      0.488913    72A      0.489539    73A      0.492816  
      74A      0.512487    75A      0.520176    76A      0.526851  
      77A      0.549305    78A      0.558659    79A      0.558933  
      80A      0.577285    81A      0.605889    82A      0.616791  
      83A      0.617633    84A      0.624902    85A      0.633304  
      86A      0.643706    87A      0.668135    88A      0.697760  
      89A      0.723348    90A      0.733808    91A      0.749534  
      92A      0.752425    93A      0.767697    94A      0.787239  
      95A      0.795215    96A      0.804196    97A      0.814352  
      98A      0.826567    99A      0.835769   100A      0.845403  
     101A      0.853741   102A      0.884207   103A      0.889297  
     104A      0.898110   105A      0.905290   106A      0.911384  
     107A      0.919948   108A      0.931200   109A      0.939570  
     110A      0.948627   111A      0.963796   112A      0.970268  
     113A      0.983224   114A      0.990805   115A      1.010014  
     116A      1.027541   117A      1.031582   118A      1.049667  
     119A      1.051994   120A      1.056700   121A      1.066412  
     122A      1.072893   123A      1.076621   124A      1.102307  
     125A      1.111203   126A      1.116903   127A      1.134755  
     128A      1.154638   129A      1.168483   130A      1.180575  
     131A      1.189845   132A      1.198055   133A      1.203701  
     134A      1.222299   135A      1.226210   136A      1.238178  
     137A      1.251373   138A      1.259629   139A      1.278130  
     140A      1.282274   141A      1.295479   142A      1.312635  
     143A      1.348313   144A      1.360992   145A      1.361441  
     146A      1.383355   147A      1.428073   148A      1.432079  
     149A      1.436777   150A      1.442225   151A      1.476736  
     152A      1.500014   153A      1.508051   154A      1.516564  
     155A      1.533855   156A      1.539191   157A      1.555040  
     158A      1.562616   159A      1.574277   160A      1.595905  
     161A      1.626508   162A      1.640888   163A      1.653093  
     164A      1.655402   165A      1.676969   166A      1.682838  
     167A      1.693133   168A      1.717854   169A      1.744762  
     170A      1.752378   171A      1.774129   172A      1.778037  
     173A      1.815903   174A      1.825902   175A      1.840689  
     176A      1.866586   177A      1.869430   178A      1.886274  
     179A      1.908612   180A      1.914200   181A      1.944575  
     182A      1.968330   183A      1.973244   184A      1.978875  
     185A      2.005133   186A      2.019623   187A      2.028573  
     188A      2.057005   189A      2.088667   190A      2.108571  
     191A      2.129914   192A      2.137382   193A      2.184648  
     194A      2.196058   195A      2.204104   196A      2.213173  
     197A      2.228824   198A      2.255204   199A      2.268864  
     200A      2.280371   201A      2.320914   202A      2.334092  
     203A      2.342424   204A      2.381643   205A      2.412979  
     206A      2.421743   207A      2.445876   208A      2.486156  
     209A      2.493283   210A      2.528392   211A      2.609495  
     212A      2.659913   213A      2.679940   214A      2.742383  
     215A      2.810131   216A      2.907036   217A      2.953284  
     218A      3.139639   219A      3.150236   220A      3.205465  
     221A      3.268363   222A      3.337217   223A      3.353707  
     224A      3.373275   225A      3.383993   226A      3.429201  
     227A      3.488942   228A      3.510865   229A      3.525305  
     230A      3.547011   231A      3.561562   232A      3.582144  
     233A      3.605032   234A      3.616528   235A      3.656226  
     236A      3.683587   237A      3.687942   238A      3.703269  
     239A      3.713484   240A      3.745780   241A      3.791358  
     242A      3.795778   243A      3.829370   244A      3.850931  
     245A      3.871229   246A      3.898557   247A      3.908422  
     248A      3.931329   249A      3.942079   250A      3.972797  
     251A      3.980761   252A      3.989525   253A      4.010346  
     254A      4.028054   255A      4.059993   256A      4.074605  
     257A      4.088261   258A      4.113651   259A      4.123499  
     260A      4.148951   261A      4.195964   262A      4.232987  
     263A      4.237421   264A      4.240432   265A      4.259234  
     266A      4.296473   267A      4.302202   268A      4.353598  
     269A      4.371728   270A      4.402820   271A      4.440981  
     272A      4.464069   273A      4.466789   274A      4.481658  
     275A      4.500188   276A      4.523718   277A      4.562267  
     278A      4.596092   279A      4.625395   280A      4.644262  
     281A      4.686684   282A      4.700329   283A      4.725926  
     284A      4.744982   285A      4.762200   286A      4.826982  
     287A      4.834449   288A      4.844302   289A      4.867493  
     290A      4.925718   291A      4.940898   292A      4.960031  
     293A      4.985934   294A      5.020017   295A      5.052604  
     296A      5.088438   297A      5.108965   298A      5.162504  
     299A      5.175599   300A      5.182343   301A      5.223829  
     302A      5.245016   303A      5.296862   304A      5.298739  
     305A      5.393788   306A      5.399572   307A      5.423624  
     308A      5.439610   309A      5.457855   310A      5.478278  
     311A      5.484930   312A      5.529066   313A      5.548185  
     314A      5.569942   315A      5.615122   316A      5.714996  
     317A      5.729219   318A      5.753675   319A      5.785469  
     320A      5.882838   321A      5.892050   322A      5.937589  
     323A      5.979723   324A      5.993422   325A      6.018801  
     326A      6.095511   327A      6.118447   328A      6.156152  
     329A      6.175949   330A      6.211905   331A      6.244231  
     332A      6.247449   333A      6.443830   334A      6.576114  
     335A      6.590413   336A      6.703435   337A      6.751583  
     338A      6.757882   339A      6.781128   340A      6.864756  
     341A      7.580593   342A     15.934887   343A     17.156370  
     344A     17.538772   345A     19.583289  

    Final Occupation by Irrep:
              A 
    DOCC [    16 ]

  @DF-RHF Final Energy:  -172.18049408220782

   => Energetics <=

    Nuclear Repulsion Energy =            119.9928365266617334
    One-Electron Energy =                -469.3429302453982359
    Two-Electron Energy =                 177.1695996365286874
    Total Energy =                       -172.1804940822078152

Computation Completed

*** tstop() called on node100.bme.utexas.edu at Wed Nov  4 04:15:21 2020
Module time:
	user time   =      33.63 seconds =       0.56 minutes
	system time =       1.18 seconds =       0.02 minutes
	total time  =          6 seconds =       0.10 minutes
Total time:
	user time   =      33.63 seconds =       0.56 minutes
	system time =       1.18 seconds =       0.02 minutes
	total time  =          6 seconds =       0.10 minutes
   => Loading Basis Set <=

    Name: (AUG-CC-PVTZ AUX)
    Role: RIFIT
    Keyword: DF_BASIS_MP2
    atoms 1    entry N          line   206 file /home/xy3866/psi4conda/share/psi4/basis/aug-cc-pvtz-ri.gbs 
    atoms 2-4  entry C          line   148 file /home/xy3866/psi4conda/share/psi4/basis/aug-cc-pvtz-ri.gbs 
    atoms 5-11 entry H          line    30 file /home/xy3866/psi4conda/share/psi4/basis/aug-cc-pvtz-ri.gbs 


*** tstart() called on node100.bme.utexas.edu
*** at Wed Nov  4 04:15:21 2020


  //>>>>>>>>>>>>>>>>>>>>>>>>>>>>>>>>>>>//
  //               DFMP2               //
  //<<<<<<<<<<<<<<<<<<<<<<<<<<<<<<<<<<<//

	 --------------------------------------------------------
	                          DF-MP2                         
	      2nd-Order Density-Fitted Moller-Plesset Theory     
	              RMP2 Wavefunction,   8 Threads             
	                                                         
	        Rob Parrish, Justin Turney, Andy Simmonett,      
	           Ed Hohenstein, and C. David Sherrill          
	 --------------------------------------------------------

   => Auxiliary Basis Set <=

  Basis Set: (AUG-CC-PVTZ AUX)
    Blend: AUG-CC-PVTZ-RI
    Number of shells: 210
    Number of basis function: 746
    Number of Cartesian functions: 929
    Spherical Harmonics?: true
    Max angular momentum: 4

	 --------------------------------------------------------
	                 NBF =   345, NAUX =   746
	 --------------------------------------------------------
	   CLASS    FOCC     OCC    AOCC    AVIR     VIR    FVIR
	   PAIRS       0      16      16     329     329       0
	 --------------------------------------------------------

  DFHelper Memory: AOs need 0.687 GiB; user supplied 22.352 GiB. Using in-core AOs.


         ------------------------------------------------------------
                                     CPHF                           
                                  Rob Parrish                       
         ------------------------------------------------------------

  ==> Geometry <==

    Molecular point group: c1
    Full point group: C1

    Geometry (in Angstrom), charge = 0, multiplicity = 1:

       Center              X                  Y                   Z               Mass       
    ------------   -----------------  -----------------  -----------------  -----------------
         N            0.047858288997     1.386006222760     0.004830029175    14.003074004430
         C            0.017352088997     0.087678222760    -0.018103470825    12.000000000000
         C           -1.332400711003    -0.576120777240     0.004793029175    12.000000000000
         C            1.212043288997    -0.815504777240     0.004771029175    12.000000000000
         H           -2.120097711003     0.177920222760     0.004755029175     1.007825032230
         H           -1.441958711003    -1.217250777240    -0.876577970825     1.007825032230
         H           -1.441727711003    -1.216792777240     0.886548029175     1.007825032230
         H            2.146164288997    -0.247460777240     0.001694029175     1.007825032230
         H            1.195250288997    -1.468394777240    -0.874355970825     1.007825032230
         H            1.198186288997    -1.463465777240     0.887628029175     1.007825032230
         H            1.025690288997     1.703666222760     0.004876029175     1.007825032230

  Nuclear repulsion =  119.992836526661733
  Reference energy  = -172.180494082207815

  ==> Basis Set <==

  Basis Set: AUG-CC-PVTZ
    Blend: AUG-CC-PVTZ
    Number of shells: 119
    Number of basis function: 345
    Number of Cartesian functions: 395
    Spherical Harmonics?: true
    Max angular momentum: 3

  ==> CGRSolver (by Rob Parrish) <==

   Number of roots    =         1
   Preconditioning    =    JACOBI
   Convergence cutoff =     1E-06
   Maximum iterations =       100

  ==> CPHFRHamiltonian (by Rob Parrish) <== 

  ==> MemDFJK: Density-Fitted J/K Matrices <==

    J tasked:                   Yes
    K tasked:                   Yes
    wK tasked:                   No
    OpenMP threads:               8
    Memory [MiB]:             22888
    Algorithm:                 Core
    Schwarz Cutoff:           1E-12
    Mask sparsity (%):       0.4268
    Fitting Condition:        1E-10

   => Auxiliary Basis Set <=

  Basis Set: (AUG-CC-PVTZ AUX)
    Blend: AUG-CC-PVTZ-JKFIT
    Number of shells: 218
    Number of basis function: 738
    Number of Cartesian functions: 909
    Spherical Harmonics?: true
    Max angular momentum: 4

  ==> CPHF Iterations <==

  => Iterations <=

             Iter  Converged  Remaining    Residual
  CGR           1          0          1   9.208E-02
  CGR           2          0          1   2.643E-02
  CGR           3          0          1   9.085E-03
  CGR           4          0          1   3.254E-03
  CGR           5          0          1   1.263E-03
  CGR           6          0          1   4.269E-04
  CGR           7          0          1   8.237E-05
  CGR           8          0          1   2.012E-05
  CGR           9          0          1   5.235E-06
  CGR          10          0          1   2.123E-06
  CGR          11          1          0   9.142E-07

    CGRSolver converged.

	-----------------------------------------------------------
	 ==================> DF-MP2 Energies <==================== 
	-----------------------------------------------------------
	 Reference Energy          =    -172.1804940822078152 [Eh]
	 Singles Energy            =      -0.0000000000000000 [Eh]
	 Same-Spin Energy          =      -0.1778614696925859 [Eh]
	 Opposite-Spin Energy      =      -0.6277456843012690 [Eh]
	 Correlation Energy        =      -0.8056071539938549 [Eh]
	 Total Energy              =    -172.9861012362016766 [Eh]
	-----------------------------------------------------------
	 ================> DF-SCS-MP2 Energies <================== 
	-----------------------------------------------------------
	 SCS Same-Spin Scale       =       0.3333333333333333 [-]
	 SCS Opposite-Spin Scale   =       1.2000000000000000 [-]
	 SCS Same-Spin Energy      =      -0.0592871565641953 [Eh]
	 SCS Opposite-Spin Energy  =      -0.7532948211615228 [Eh]
	 SCS Correlation Energy    =      -0.8125819777257181 [Eh]
	 SCS Total Energy          =    -172.9930760599335429 [Eh]
	-----------------------------------------------------------



Properties will be evaluated at  -0.000000,   0.000000,   0.000000 [a0]

Properties computed using the MP2 density matrix

  Nuclear Dipole Moment: [e a0]
     X:     0.5263      Y:    -3.5025      Z:     0.0324

  Electronic Dipole Moment: [e a0]
     X:    -0.0425      Y:     2.6408      Z:    -0.0289

  Dipole Moment: [e a0]
     X:     0.4837      Y:    -0.8616      Z:     0.0035     Total:     0.9881

  Dipole Moment: [D]
     X:     1.2296      Y:    -2.1901      Z:     0.0088     Total:     2.5116


*** tstop() called on node100.bme.utexas.edu at Wed Nov  4 04:15:34 2020
Module time:
	user time   =      87.34 seconds =       1.46 minutes
	system time =       2.31 seconds =       0.04 minutes
	total time  =         13 seconds =       0.22 minutes
Total time:
	user time   =     121.79 seconds =       2.03 minutes
	system time =       3.52 seconds =       0.06 minutes
	total time  =         19 seconds =       0.32 minutes

    Psi4 stopped on: Wednesday, 04 November 2020 04:15AM
    Psi4 wall time for execution: 0:00:18.46

*** Psi4 exiting successfully. Buy a developer a beer!
