
    -----------------------------------------------------------------------
          Psi4: An Open-Source Ab Initio Electronic Structure Package
                               Psi4 1.3.2 release

                         Git: Rev {HEAD} ecbda83 


    R. M. Parrish, L. A. Burns, D. G. A. Smith, A. C. Simmonett,
    A. E. DePrince III, E. G. Hohenstein, U. Bozkaya, A. Yu. Sokolov,
    R. Di Remigio, R. M. Richard, J. F. Gonthier, A. M. James,
    H. R. McAlexander, A. Kumar, M. Saitow, X. Wang, B. P. Pritchard,
    P. Verma, H. F. Schaefer III, K. Patkowski, R. A. King, E. F. Valeev,
    F. A. Evangelista, J. M. Turney, T. D. Crawford, and C. D. Sherrill,
    J. Chem. Theory Comput. 13(7) pp 3185--3197 (2017).
    (doi: 10.1021/acs.jctc.7b00174)


                         Additional Contributions by
    P. Kraus, H. Kruse, M. H. Lechner, M. C. Schieber, R. A. Shaw,
    A. Alenaizan, R. Galvelis, Z. L. Glick, S. Lehtola, and J. P. Misiewicz

    -----------------------------------------------------------------------


    Psi4 started on: Wednesday, 04 November 2020 04:12AM

    Process ID: 27269
    Host:       node100.bme.utexas.edu
    PSIDATADIR: /home/xy3866/psi4conda/share/psi4
    Memory:     500.0 MiB
    Threads:    8
    
  ==> Input File <==

--------------------------------------------------------------------------
#psi4
#
memory 32 gb

molecule  {
0 1
  N        0.0402460     1.4416600     0.0000620
  C        0.0488364     0.1549310    -0.0003011
  C       -1.3400130    -0.5204670     0.0000250
  C        1.2044310    -0.7598510     0.0000030
  H       -2.1277100     0.2335740    -0.0000130
  H       -1.4495710    -1.1615970    -0.8813460
  H       -1.4493400    -1.1611390     0.8817800
  H        2.1385520    -0.1918070    -0.0030740
  H        1.1876380    -1.4127410    -0.8791240
  H        1.1905740    -1.4078120     0.8828600
  H        1.0180780     1.7593200     0.0001080
units angstrom
no_reorient  #important for SAPT in psi4, default
symmetry c1  #important for SAPT in psi4, default
}

set PROPERTIES_ORIGIN ["COM"]
properties('MP2/aug-cc-pvtz', properties = ['dipole'])
--------------------------------------------------------------------------

  Memory set to  29.802 GiB by Python driver.
    SCF Algorithm Type (re)set to DF.

*** tstart() called on node100.bme.utexas.edu
*** at Wed Nov  4 04:12:49 2020

   => Loading Basis Set <=

    Name: AUG-CC-PVTZ
    Role: ORBITAL
    Keyword: BASIS
    atoms 1    entry N          line   281 file /home/xy3866/psi4conda/share/psi4/basis/aug-cc-pvtz.gbs 
    atoms 2-4  entry C          line   235 file /home/xy3866/psi4conda/share/psi4/basis/aug-cc-pvtz.gbs 
    atoms 5-11 entry H          line    36 file /home/xy3866/psi4conda/share/psi4/basis/aug-cc-pvtz.gbs 


         ---------------------------------------------------------
                                   SCF
               by Justin Turney, Rob Parrish, Andy Simmonett
                          and Daniel G. A. Smith
                              RHF Reference
                        8 Threads,  30517 MiB Core
         ---------------------------------------------------------

  ==> Geometry <==

    Molecular point group: c1
    Full point group: C1

    Geometry (in Angstrom), charge = 0, multiplicity = 1:

       Center              X                  Y                   Z               Mass       
    ------------   -----------------  -----------------  -----------------  -----------------
         N            0.039635770863     1.383566803786     0.000083183585    14.003074004430
         C            0.048226170863     0.096837803786    -0.000279916415    12.000000000000
         C           -1.340623229137    -0.578560196214     0.000046183585    12.000000000000
         C            1.203820770863    -0.817944196214     0.000024183585    12.000000000000
         H           -2.128320229137     0.175480803786     0.000008183585     1.007825032230
         H           -1.450181229137    -1.219690196214    -0.881324816415     1.007825032230
         H           -1.449950229137    -1.219232196214     0.881801183585     1.007825032230
         H            2.137941770863    -0.249900196214    -0.003052816415     1.007825032230
         H            1.187027770863    -1.470834196214    -0.879102816415     1.007825032230
         H            1.189963770863    -1.465905196214     0.882881183585     1.007825032230
         H            1.017467770863     1.701226803786     0.000129183585     1.007825032230

  Running in c1 symmetry.

  Rotational constants: A =      0.32198  B =      0.28317  C =      0.15960 [cm^-1]
  Rotational constants: A =   9652.71799  B =   8489.33767  C =   4784.63932 [MHz]
  Nuclear repulsion =  120.031652916620189

  Charge       = 0
  Multiplicity = 1
  Electrons    = 32
  Nalpha       = 16
  Nbeta        = 16

  ==> Algorithm <==

  SCF Algorithm Type is DF.
  DIIS enabled.
  MOM disabled.
  Fractional occupation disabled.
  Guess Type is SAD.
  Energy threshold   = 1.00e-10
  Density threshold  = 1.00e-10
  Integral threshold = 0.00e+00

  ==> Primary Basis <==

  Basis Set: AUG-CC-PVTZ
    Blend: AUG-CC-PVTZ
    Number of shells: 119
    Number of basis function: 345
    Number of Cartesian functions: 395
    Spherical Harmonics?: true
    Max angular momentum: 3

   => Loading Basis Set <=

    Name: (AUG-CC-PVTZ AUX)
    Role: JKFIT
    Keyword: DF_BASIS_SCF
    atoms 1    entry N          line   224 file /home/xy3866/psi4conda/share/psi4/basis/aug-cc-pvtz-jkfit.gbs 
    atoms 2-4  entry C          line   162 file /home/xy3866/psi4conda/share/psi4/basis/aug-cc-pvtz-jkfit.gbs 
    atoms 5-11 entry H          line    70 file /home/xy3866/psi4conda/share/psi4/basis/aug-cc-pvtz-jkfit.gbs 

  ==> Pre-Iterations <==

   -------------------------------------------------------
    Irrep   Nso     Nmo     Nalpha   Nbeta   Ndocc  Nsocc
   -------------------------------------------------------
     A        345     345       0       0       0       0
   -------------------------------------------------------
    Total     345     345      16      16      16       0
   -------------------------------------------------------

  ==> Integral Setup <==

  DFHelper Memory: AOs need 0.687 GiB; user supplied 22.352 GiB. Using in-core AOs.

  ==> MemDFJK: Density-Fitted J/K Matrices <==

    J tasked:                   Yes
    K tasked:                   Yes
    wK tasked:                   No
    OpenMP threads:               8
    Memory [MiB]:             22888
    Algorithm:                 Core
    Schwarz Cutoff:           1E-12
    Mask sparsity (%):       0.4268
    Fitting Condition:        1E-10

   => Auxiliary Basis Set <=

  Basis Set: (AUG-CC-PVTZ AUX)
    Blend: AUG-CC-PVTZ-JKFIT
    Number of shells: 218
    Number of basis function: 738
    Number of Cartesian functions: 909
    Spherical Harmonics?: true
    Max angular momentum: 4

  Minimum eigenvalue in the overlap matrix is 1.1154158168E-05.
  Using Symmetric Orthogonalization.

  SCF Guess: Superposition of Atomic Densities via on-the-fly atomic UHF.

  ==> Iterations <==

                           Total Energy        Delta E     RMS |[F,P]|

   @DF-RHF iter SAD:  -171.34360185604174   -1.71344e+02   0.00000e+00 
   @DF-RHF iter   1:  -171.98482787627523   -6.41226e-01   1.66302e-03 DIIS
   @DF-RHF iter   2:  -172.14199951269202   -1.57172e-01   8.19197e-04 DIIS
   @DF-RHF iter   3:  -172.17652563135434   -3.45261e-02   1.58216e-04 DIIS
   @DF-RHF iter   4:  -172.17896921839986   -2.44359e-03   8.10576e-05 DIIS
   @DF-RHF iter   5:  -172.17942717930276   -4.57961e-04   1.27733e-05 DIIS
   @DF-RHF iter   6:  -172.17945193838418   -2.47591e-05   6.40168e-06 DIIS
   @DF-RHF iter   7:  -172.17945612601881   -4.18763e-06   2.33164e-06 DIIS
   @DF-RHF iter   8:  -172.17945712470006   -9.98681e-07   6.07912e-07 DIIS
   @DF-RHF iter   9:  -172.17945720409742   -7.93974e-08   1.26335e-07 DIIS
   @DF-RHF iter  10:  -172.17945720716270   -3.06528e-09   3.09519e-08 DIIS
   @DF-RHF iter  11:  -172.17945720730782   -1.45121e-10   9.40540e-09 DIIS
   @DF-RHF iter  12:  -172.17945720731899   -1.11697e-11   2.68498e-09 DIIS
   @DF-RHF iter  13:  -172.17945720732041   -1.42109e-12   6.40395e-10 DIIS
   @DF-RHF iter  14:  -172.17945720732104   -6.25278e-13   1.32382e-10 DIIS
   @DF-RHF iter  15:  -172.17945720732118   -1.42109e-13   3.24646e-11 DIIS
  Energy and wave function converged.


  ==> Post-Iterations <==

    Orbital Energies [Eh]
    ---------------------

    Doubly Occupied:                                                      

       1A    -15.543392     2A    -11.288576     3A    -11.238060  
       4A    -11.223695     5A     -1.206250     6A     -1.014202  
       7A     -0.954287     8A     -0.739560     9A     -0.649666  
      10A     -0.608955    11A     -0.607983    12A     -0.549667  
      13A     -0.538217    14A     -0.511003    15A     -0.418867  
      16A     -0.411876  

    Virtual:                                                              

      17A      0.026737    18A      0.036965    19A      0.041694  
      20A      0.044622    21A      0.060994    22A      0.062823  
      23A      0.063049    24A      0.091798    25A      0.116379  
      26A      0.118581    27A      0.125416    28A      0.126707  
      29A      0.132152    30A      0.132217    31A      0.142079  
      32A      0.146108    33A      0.155175    34A      0.156502  
      35A      0.172432    36A      0.183546    37A      0.186393  
      38A      0.193060    39A      0.224889    40A      0.232874  
      41A      0.239672    42A      0.244770    43A      0.264502  
      44A      0.270130    45A      0.297974    46A      0.310453  
      47A      0.317441    48A      0.325153    49A      0.333955  
      50A      0.340027    51A      0.341705    52A      0.351719  
      53A      0.354328    54A      0.359927    55A      0.361533  
      56A      0.363686    57A      0.367929    58A      0.384573  
      59A      0.395035    60A      0.400348    61A      0.416441  
      62A      0.419425    63A      0.424484    64A      0.429192  
      65A      0.443790    66A      0.446860    67A      0.448946  
      68A      0.464136    69A      0.469192    70A      0.483678  
      71A      0.489287    72A      0.489537    73A      0.492357  
      74A      0.511153    75A      0.521023    76A      0.528128  
      77A      0.546562    78A      0.555197    79A      0.558436  
      80A      0.578378    81A      0.606081    82A      0.615866  
      83A      0.617432    84A      0.624892    85A      0.635297  
      86A      0.645743    87A      0.667515    88A      0.699863  
      89A      0.722446    90A      0.726780    91A      0.752760  
      92A      0.755594    93A      0.769123    94A      0.789054  
      95A      0.792433    96A      0.807091    97A      0.813749  
      98A      0.825503    99A      0.833927   100A      0.846116  
     101A      0.852156   102A      0.885375   103A      0.888646  
     104A      0.898157   105A      0.904921   106A      0.913590  
     107A      0.920763   108A      0.931031   109A      0.940213  
     110A      0.948941   111A      0.962791   112A      0.967227  
     113A      0.986053   114A      0.992214   115A      1.008536  
     116A      1.031426   117A      1.032355   118A      1.050290  
     119A      1.052559   120A      1.058211   121A      1.066071  
     122A      1.071236   123A      1.076477   124A      1.101051  
     125A      1.113241   126A      1.116055   127A      1.134787  
     128A      1.154615   129A      1.170522   130A      1.181177  
     131A      1.190466   132A      1.198941   133A      1.203680  
     134A      1.220941   135A      1.226540   136A      1.239324  
     137A      1.251721   138A      1.261210   139A      1.278590  
     140A      1.283994   141A      1.294161   142A      1.311626  
     143A      1.349138   144A      1.360850   145A      1.361330  
     146A      1.385415   147A      1.426148   148A      1.430196  
     149A      1.436440   150A      1.442713   151A      1.474973  
     152A      1.497190   153A      1.509328   154A      1.510795  
     155A      1.535396   156A      1.538278   157A      1.559836  
     158A      1.563950   159A      1.575774   160A      1.589361  
     161A      1.628800   162A      1.640326   163A      1.652646  
     164A      1.655218   165A      1.675424   166A      1.684252  
     167A      1.690579   168A      1.717868   169A      1.745729  
     170A      1.753852   171A      1.773161   172A      1.776852  
     173A      1.814738   174A      1.830896   175A      1.838832  
     176A      1.866763   177A      1.870832   178A      1.887371  
     179A      1.911723   180A      1.917566   181A      1.943047  
     182A      1.968540   183A      1.972790   184A      1.977697  
     185A      2.012443   186A      2.017789   187A      2.031324  
     188A      2.055015   189A      2.088185   190A      2.104760  
     191A      2.131318   192A      2.140098   193A      2.180402  
     194A      2.195378   195A      2.207377   196A      2.213830  
     197A      2.229586   198A      2.255629   199A      2.269080  
     200A      2.283039   201A      2.316638   202A      2.338950  
     203A      2.344665   204A      2.385746   205A      2.411098  
     206A      2.413723   207A      2.446716   208A      2.489278  
     209A      2.496235   210A      2.521565   211A      2.620123  
     212A      2.654019   213A      2.662046   214A      2.745186  
     215A      2.806936   216A      2.908648   217A      2.957108  
     218A      3.134390   219A      3.145265   220A      3.205750  
     221A      3.264178   222A      3.340106   223A      3.346726  
     224A      3.376212   225A      3.378511   226A      3.427931  
     227A      3.497956   228A      3.507456   229A      3.527327  
     230A      3.547270   231A      3.573339   232A      3.588989  
     233A      3.605288   234A      3.613861   235A      3.649076  
     236A      3.685874   237A      3.691506   238A      3.701111  
     239A      3.713940   240A      3.751240   241A      3.794930  
     242A      3.795244   243A      3.827888   244A      3.842334  
     245A      3.871084   246A      3.899632   247A      3.903436  
     248A      3.930076   249A      3.941545   250A      3.974323  
     251A      3.979108   252A      3.993691   253A      4.009570  
     254A      4.031220   255A      4.061856   256A      4.068202  
     257A      4.088905   258A      4.120840   259A      4.124536  
     260A      4.150516   261A      4.196199   262A      4.227707  
     263A      4.232997   264A      4.236255   265A      4.260658  
     266A      4.301140   267A      4.313231   268A      4.356894  
     269A      4.363263   270A      4.406442   271A      4.441866  
     272A      4.453193   273A      4.465895   274A      4.489648  
     275A      4.506688   276A      4.526319   277A      4.548707  
     278A      4.596803   279A      4.632820   280A      4.636299  
     281A      4.679057   282A      4.706093   283A      4.722813  
     284A      4.747774   285A      4.762082   286A      4.824881  
     287A      4.836260   288A      4.838124   289A      4.869851  
     290A      4.924523   291A      4.936305   292A      4.963726  
     293A      4.982274   294A      5.028058   295A      5.047511  
     296A      5.086766   297A      5.121402   298A      5.159504  
     299A      5.175800   300A      5.197256   301A      5.225270  
     302A      5.244363   303A      5.284263   304A      5.298986  
     305A      5.396985   306A      5.400314   307A      5.415577  
     308A      5.437667   309A      5.455225   310A      5.463386  
     311A      5.485931   312A      5.533883   313A      5.555313  
     314A      5.570869   315A      5.620027   316A      5.710658  
     317A      5.734636   318A      5.757473   319A      5.777084  
     320A      5.885529   321A      5.894501   322A      5.919403  
     323A      5.992011   324A      6.008223   325A      6.020970  
     326A      6.097109   327A      6.111983   328A      6.159315  
     329A      6.163103   330A      6.232923   331A      6.233749  
     332A      6.273988   333A      6.430482   334A      6.577080  
     335A      6.597027   336A      6.702782   337A      6.752886  
     338A      6.753278   339A      6.782487   340A      6.880739  
     341A      7.596870   342A     15.977159   343A     17.362272  
     344A     17.581702   345A     19.553847  

    Final Occupation by Irrep:
              A 
    DOCC [    16 ]

  @DF-RHF Final Energy:  -172.17945720732118

   => Energetics <=

    Nuclear Repulsion Energy =            120.0316529166201889
    One-Electron Energy =                -469.4137105823400589
    Two-Electron Energy =                 177.2026004583986776
    Total Energy =                       -172.1794572073211782

Computation Completed

*** tstop() called on node100.bme.utexas.edu at Wed Nov  4 04:12:54 2020
Module time:
	user time   =      32.50 seconds =       0.54 minutes
	system time =       1.22 seconds =       0.02 minutes
	total time  =          5 seconds =       0.08 minutes
Total time:
	user time   =      32.50 seconds =       0.54 minutes
	system time =       1.22 seconds =       0.02 minutes
	total time  =          5 seconds =       0.08 minutes
   => Loading Basis Set <=

    Name: (AUG-CC-PVTZ AUX)
    Role: RIFIT
    Keyword: DF_BASIS_MP2
    atoms 1    entry N          line   206 file /home/xy3866/psi4conda/share/psi4/basis/aug-cc-pvtz-ri.gbs 
    atoms 2-4  entry C          line   148 file /home/xy3866/psi4conda/share/psi4/basis/aug-cc-pvtz-ri.gbs 
    atoms 5-11 entry H          line    30 file /home/xy3866/psi4conda/share/psi4/basis/aug-cc-pvtz-ri.gbs 


*** tstart() called on node100.bme.utexas.edu
*** at Wed Nov  4 04:12:54 2020


  //>>>>>>>>>>>>>>>>>>>>>>>>>>>>>>>>>>>//
  //               DFMP2               //
  //<<<<<<<<<<<<<<<<<<<<<<<<<<<<<<<<<<<//

	 --------------------------------------------------------
	                          DF-MP2                         
	      2nd-Order Density-Fitted Moller-Plesset Theory     
	              RMP2 Wavefunction,   8 Threads             
	                                                         
	        Rob Parrish, Justin Turney, Andy Simmonett,      
	           Ed Hohenstein, and C. David Sherrill          
	 --------------------------------------------------------

   => Auxiliary Basis Set <=

  Basis Set: (AUG-CC-PVTZ AUX)
    Blend: AUG-CC-PVTZ-RI
    Number of shells: 210
    Number of basis function: 746
    Number of Cartesian functions: 929
    Spherical Harmonics?: true
    Max angular momentum: 4

	 --------------------------------------------------------
	                 NBF =   345, NAUX =   746
	 --------------------------------------------------------
	   CLASS    FOCC     OCC    AOCC    AVIR     VIR    FVIR
	   PAIRS       0      16      16     329     329       0
	 --------------------------------------------------------

  DFHelper Memory: AOs need 0.687 GiB; user supplied 22.352 GiB. Using in-core AOs.


         ------------------------------------------------------------
                                     CPHF                           
                                  Rob Parrish                       
         ------------------------------------------------------------

  ==> Geometry <==

    Molecular point group: c1
    Full point group: C1

    Geometry (in Angstrom), charge = 0, multiplicity = 1:

       Center              X                  Y                   Z               Mass       
    ------------   -----------------  -----------------  -----------------  -----------------
         N            0.039635770863     1.383566803786     0.000083183585    14.003074004430
         C            0.048226170863     0.096837803786    -0.000279916415    12.000000000000
         C           -1.340623229137    -0.578560196214     0.000046183585    12.000000000000
         C            1.203820770863    -0.817944196214     0.000024183585    12.000000000000
         H           -2.128320229137     0.175480803786     0.000008183585     1.007825032230
         H           -1.450181229137    -1.219690196214    -0.881324816415     1.007825032230
         H           -1.449950229137    -1.219232196214     0.881801183585     1.007825032230
         H            2.137941770863    -0.249900196214    -0.003052816415     1.007825032230
         H            1.187027770863    -1.470834196214    -0.879102816415     1.007825032230
         H            1.189963770863    -1.465905196214     0.882881183585     1.007825032230
         H            1.017467770863     1.701226803786     0.000129183585     1.007825032230

  Nuclear repulsion =  120.031652916620189
  Reference energy  = -172.179457207321178

  ==> Basis Set <==

  Basis Set: AUG-CC-PVTZ
    Blend: AUG-CC-PVTZ
    Number of shells: 119
    Number of basis function: 345
    Number of Cartesian functions: 395
    Spherical Harmonics?: true
    Max angular momentum: 3

  ==> CGRSolver (by Rob Parrish) <==

   Number of roots    =         1
   Preconditioning    =    JACOBI
   Convergence cutoff =     1E-06
   Maximum iterations =       100

  ==> CPHFRHamiltonian (by Rob Parrish) <== 

  ==> MemDFJK: Density-Fitted J/K Matrices <==

    J tasked:                   Yes
    K tasked:                   Yes
    wK tasked:                   No
    OpenMP threads:               8
    Memory [MiB]:             22888
    Algorithm:                 Core
    Schwarz Cutoff:           1E-12
    Mask sparsity (%):       0.4268
    Fitting Condition:        1E-10

   => Auxiliary Basis Set <=

  Basis Set: (AUG-CC-PVTZ AUX)
    Blend: AUG-CC-PVTZ-JKFIT
    Number of shells: 218
    Number of basis function: 738
    Number of Cartesian functions: 909
    Spherical Harmonics?: true
    Max angular momentum: 4

  ==> CPHF Iterations <==

  => Iterations <=

             Iter  Converged  Remaining    Residual
  CGR           1          0          1   9.109E-02
  CGR           2          0          1   2.545E-02
  CGR           3          0          1   8.669E-03
  CGR           4          0          1   2.986E-03
  CGR           5          0          1   1.159E-03
  CGR           6          0          1   3.948E-04
  CGR           7          0          1   7.913E-05
  CGR           8          0          1   1.886E-05
  CGR           9          0          1   3.675E-06
  CGR          10          1          0   7.751E-07

    CGRSolver converged.

	-----------------------------------------------------------
	 ==================> DF-MP2 Energies <==================== 
	-----------------------------------------------------------
	 Reference Energy          =    -172.1794572073211782 [Eh]
	 Singles Energy            =      -0.0000000000000000 [Eh]
	 Same-Spin Energy          =      -0.1777260338711605 [Eh]
	 Opposite-Spin Energy      =      -0.6274754674069881 [Eh]
	 Correlation Energy        =      -0.8052015012781486 [Eh]
	 Total Energy              =    -172.9846587085993406 [Eh]
	-----------------------------------------------------------
	 ================> DF-SCS-MP2 Energies <================== 
	-----------------------------------------------------------
	 SCS Same-Spin Scale       =       0.3333333333333333 [-]
	 SCS Opposite-Spin Scale   =       1.2000000000000000 [-]
	 SCS Same-Spin Energy      =      -0.0592420112903868 [Eh]
	 SCS Opposite-Spin Energy  =      -0.7529705608883858 [Eh]
	 SCS Correlation Energy    =      -0.8122125721787726 [Eh]
	 SCS Total Energy          =    -172.9916697794999436 [Eh]
	-----------------------------------------------------------



Properties will be evaluated at  -0.000000,   0.000000,  -0.000000 [a0]

Properties computed using the MP2 density matrix

  Nuclear Dipole Moment: [e a0]
     X:     0.4723      Y:    -3.5185      Z:     0.0013

  Electronic Dipole Moment: [e a0]
     X:     0.0567      Y:     2.6718      Z:    -0.0011

  Dipole Moment: [e a0]
     X:     0.5290      Y:    -0.8467      Z:     0.0002     Total:     0.9983

  Dipole Moment: [D]
     X:     1.3445      Y:    -2.1520      Z:     0.0005     Total:     2.5375


*** tstop() called on node100.bme.utexas.edu at Wed Nov  4 04:13:07 2020
Module time:
	user time   =      86.32 seconds =       1.44 minutes
	system time =       2.35 seconds =       0.04 minutes
	total time  =         13 seconds =       0.22 minutes
Total time:
	user time   =     119.64 seconds =       1.99 minutes
	system time =       3.61 seconds =       0.06 minutes
	total time  =         18 seconds =       0.30 minutes

    Psi4 stopped on: Wednesday, 04 November 2020 04:13AM
    Psi4 wall time for execution: 0:00:18.32

*** Psi4 exiting successfully. Buy a developer a beer!
