
    -----------------------------------------------------------------------
          Psi4: An Open-Source Ab Initio Electronic Structure Package
                               Psi4 1.3.2 release

                         Git: Rev {HEAD} ecbda83 


    R. M. Parrish, L. A. Burns, D. G. A. Smith, A. C. Simmonett,
    A. E. DePrince III, E. G. Hohenstein, U. Bozkaya, A. Yu. Sokolov,
    R. Di Remigio, R. M. Richard, J. F. Gonthier, A. M. James,
    H. R. McAlexander, A. Kumar, M. Saitow, X. Wang, B. P. Pritchard,
    P. Verma, H. F. Schaefer III, K. Patkowski, R. A. King, E. F. Valeev,
    F. A. Evangelista, J. M. Turney, T. D. Crawford, and C. D. Sherrill,
    J. Chem. Theory Comput. 13(7) pp 3185--3197 (2017).
    (doi: 10.1021/acs.jctc.7b00174)


                         Additional Contributions by
    P. Kraus, H. Kruse, M. H. Lechner, M. C. Schieber, R. A. Shaw,
    A. Alenaizan, R. Galvelis, Z. L. Glick, S. Lehtola, and J. P. Misiewicz

    -----------------------------------------------------------------------


    Psi4 started on: Wednesday, 04 November 2020 04:11AM

    Process ID: 27149
    Host:       node100.bme.utexas.edu
    PSIDATADIR: /home/xy3866/psi4conda/share/psi4
    Memory:     500.0 MiB
    Threads:    8
    
  ==> Input File <==

--------------------------------------------------------------------------
#psi4
#
memory 32 gb

molecule  {
0 1
  N        0.0402460     1.4416600     0.0000620
  C        0.0039250     0.1554150    -0.0002990
  C       -1.3400130    -0.5204670     0.0000250
  C        1.2044310    -0.7598510     0.0000030
  H       -2.1277100     0.2335740    -0.0000130
  H       -1.4495710    -1.1615970    -0.8813460
  H       -1.4493400    -1.1611390     0.8817800
  H        2.1385520    -0.1918070    -0.0030740
  H        1.1876380    -1.4127410    -0.8791240
  H        1.1905740    -1.4078120     0.8828600
  H        0.8278634     1.6975266     0.0000991
units angstrom
no_reorient  #important for SAPT in psi4, default
symmetry c1  #important for SAPT in psi4, default
}

set PROPERTIES_ORIGIN ["COM"]
properties('MP2/aug-cc-pvtz', properties = ['dipole'])
--------------------------------------------------------------------------

  Memory set to  29.802 GiB by Python driver.
    SCF Algorithm Type (re)set to DF.

*** tstart() called on node100.bme.utexas.edu
*** at Wed Nov  4 04:11:26 2020

   => Loading Basis Set <=

    Name: AUG-CC-PVTZ
    Role: ORBITAL
    Keyword: BASIS
    atoms 1    entry N          line   281 file /home/xy3866/psi4conda/share/psi4/basis/aug-cc-pvtz.gbs 
    atoms 2-4  entry C          line   235 file /home/xy3866/psi4conda/share/psi4/basis/aug-cc-pvtz.gbs 
    atoms 5-11 entry H          line    36 file /home/xy3866/psi4conda/share/psi4/basis/aug-cc-pvtz.gbs 


         ---------------------------------------------------------
                                   SCF
               by Justin Turney, Rob Parrish, Andy Simmonett
                          and Daniel G. A. Smith
                              RHF Reference
                        8 Threads,  30517 MiB Core
         ---------------------------------------------------------

  ==> Geometry <==

    Molecular point group: c1
    Full point group: C1

    Geometry (in Angstrom), charge = 0, multiplicity = 1:

       Center              X                  Y                   Z               Mass       
    ------------   -----------------  -----------------  -----------------  -----------------
         N            0.052441017560     1.384556482439     0.000082899131    14.003074004430
         C            0.016120017560     0.098311482439    -0.000278100869    12.000000000000
         C           -1.327817982440    -0.577570517561     0.000045899131    12.000000000000
         C            1.216626017560    -0.816954517561     0.000023899131    12.000000000000
         H           -2.115514982440     0.176470482439     0.000007899131     1.007825032230
         H           -1.437375982440    -1.218700517561    -0.881325100869     1.007825032230
         H           -1.437144982440    -1.218242517561     0.881800899131     1.007825032230
         H            2.150747017560    -0.248910517561    -0.003053100869     1.007825032230
         H            1.199833017560    -1.469844517561    -0.879103100869     1.007825032230
         H            1.202769017560    -1.464915517561     0.882880899131     1.007825032230
         H            0.840058417560     1.640423082439     0.000119999131     1.007825032230

  Running in c1 symmetry.

  Rotational constants: A =      0.32404  B =      0.28444  C =      0.16051 [cm^-1]
  Rotational constants: A =   9714.53572  B =   8527.23643  C =   4811.87027 [MHz]
  Nuclear repulsion =  121.148654499986790

  Charge       = 0
  Multiplicity = 1
  Electrons    = 32
  Nalpha       = 16
  Nbeta        = 16

  ==> Algorithm <==

  SCF Algorithm Type is DF.
  DIIS enabled.
  MOM disabled.
  Fractional occupation disabled.
  Guess Type is SAD.
  Energy threshold   = 1.00e-10
  Density threshold  = 1.00e-10
  Integral threshold = 0.00e+00

  ==> Primary Basis <==

  Basis Set: AUG-CC-PVTZ
    Blend: AUG-CC-PVTZ
    Number of shells: 119
    Number of basis function: 345
    Number of Cartesian functions: 395
    Spherical Harmonics?: true
    Max angular momentum: 3

   => Loading Basis Set <=

    Name: (AUG-CC-PVTZ AUX)
    Role: JKFIT
    Keyword: DF_BASIS_SCF
    atoms 1    entry N          line   224 file /home/xy3866/psi4conda/share/psi4/basis/aug-cc-pvtz-jkfit.gbs 
    atoms 2-4  entry C          line   162 file /home/xy3866/psi4conda/share/psi4/basis/aug-cc-pvtz-jkfit.gbs 
    atoms 5-11 entry H          line    70 file /home/xy3866/psi4conda/share/psi4/basis/aug-cc-pvtz-jkfit.gbs 

  ==> Pre-Iterations <==

   -------------------------------------------------------
    Irrep   Nso     Nmo     Nalpha   Nbeta   Ndocc  Nsocc
   -------------------------------------------------------
     A        345     345       0       0       0       0
   -------------------------------------------------------
    Total     345     345      16      16      16       0
   -------------------------------------------------------

  ==> Integral Setup <==

  DFHelper Memory: AOs need 0.687 GiB; user supplied 22.352 GiB. Using in-core AOs.

  ==> MemDFJK: Density-Fitted J/K Matrices <==

    J tasked:                   Yes
    K tasked:                   Yes
    wK tasked:                   No
    OpenMP threads:               8
    Memory [MiB]:             22888
    Algorithm:                 Core
    Schwarz Cutoff:           1E-12
    Mask sparsity (%):       0.3209
    Fitting Condition:        1E-10

   => Auxiliary Basis Set <=

  Basis Set: (AUG-CC-PVTZ AUX)
    Blend: AUG-CC-PVTZ-JKFIT
    Number of shells: 218
    Number of basis function: 738
    Number of Cartesian functions: 909
    Spherical Harmonics?: true
    Max angular momentum: 4

  Minimum eigenvalue in the overlap matrix is 1.0460681150E-05.
  Using Symmetric Orthogonalization.

  SCF Guess: Superposition of Atomic Densities via on-the-fly atomic UHF.

  ==> Iterations <==

                           Total Energy        Delta E     RMS |[F,P]|

   @DF-RHF iter SAD:  -171.40805579564886   -1.71408e+02   0.00000e+00 
   @DF-RHF iter   1:  -171.93364110977973   -5.25585e-01   1.76590e-03 DIIS
   @DF-RHF iter   2:  -172.10087670994918   -1.67236e-01   8.91036e-04 DIIS
   @DF-RHF iter   3:  -172.13917669970104   -3.83000e-02   1.70120e-04 DIIS
   @DF-RHF iter   4:  -172.14192453455516   -2.74783e-03   8.68086e-05 DIIS
   @DF-RHF iter   5:  -172.14247846794765   -5.53933e-04   1.37538e-05 DIIS
   @DF-RHF iter   6:  -172.14251267831534   -3.42104e-05   6.97721e-06 DIIS
   @DF-RHF iter   7:  -172.14251856693753   -5.88862e-06   2.72936e-06 DIIS
   @DF-RHF iter   8:  -172.14251999713986   -1.43020e-06   5.50207e-07 DIIS
   @DF-RHF iter   9:  -172.14252005754551   -6.04057e-08   9.89311e-08 DIIS
   @DF-RHF iter  10:  -172.14252005926144   -1.71593e-09   2.01395e-08 DIIS
   @DF-RHF iter  11:  -172.14252005931809   -5.66445e-11   5.59059e-09 DIIS
   @DF-RHF iter  12:  -172.14252005932167   -3.58114e-12   1.46106e-09 DIIS
   @DF-RHF iter  13:  -172.14252005932147    1.98952e-13   3.23119e-10 DIIS
   @DF-RHF iter  14:  -172.14252005932175   -2.84217e-13   6.90760e-11 DIIS
  Energy and wave function converged.


  ==> Post-Iterations <==

    Orbital Energies [Eh]
    ---------------------

    Doubly Occupied:                                                      

       1A    -15.515764     2A    -11.289751     3A    -11.238856  
       4A    -11.222853     5A     -1.232281     6A     -1.026591  
       7A     -0.958080     8A     -0.778768     9A     -0.661141  
      10A     -0.608259    11A     -0.605003    12A     -0.551103  
      13A     -0.544872    14A     -0.518371    15A     -0.421649  
      16A     -0.412700  

    Virtual:                                                              

      17A      0.026863    18A      0.036668    19A      0.041617  
      20A      0.044424    21A      0.060559    22A      0.062765  
      23A      0.062934    24A      0.092895    25A      0.116381  
      26A      0.118683    27A      0.124457    28A      0.127543  
      29A      0.131757    30A      0.132786    31A      0.141696  
      32A      0.146062    33A      0.154540    34A      0.155070  
      35A      0.173871    36A      0.181708    37A      0.185186  
      38A      0.191913    39A      0.222718    40A      0.233472  
      41A      0.241688    42A      0.245491    43A      0.265554  
      44A      0.276616    45A      0.298405    46A      0.311796  
      47A      0.320814    48A      0.328646    49A      0.334830  
      50A      0.343059    51A      0.343674    52A      0.350994  
      53A      0.355040    54A      0.359528    55A      0.360382  
      56A      0.363337    57A      0.370977    58A      0.386265  
      59A      0.395815    60A      0.399836    61A      0.417452  
      62A      0.423742    63A      0.424070    64A      0.429649  
      65A      0.443568    66A      0.449247    67A      0.449644  
      68A      0.468036    69A      0.474314    70A      0.485106  
      71A      0.489485    72A      0.489621    73A      0.495212  
      74A      0.517927    75A      0.519726    76A      0.527568  
      77A      0.552279    78A      0.558073    79A      0.559398  
      80A      0.578362    81A      0.604380    82A      0.615723  
      83A      0.616486    84A      0.623464    85A      0.645476  
      86A      0.648809    87A      0.674731    88A      0.708567  
      89A      0.726165    90A      0.731266    91A      0.761007  
      92A      0.764855    93A      0.767231    94A      0.787418  
      95A      0.796421    96A      0.810781    97A      0.817396  
      98A      0.825506    99A      0.838958   100A      0.845414  
     101A      0.851364   102A      0.885020   103A      0.886433  
     104A      0.901296   105A      0.904506   106A      0.914112  
     107A      0.922417   108A      0.932226   109A      0.940979  
     110A      0.947480   111A      0.961149   112A      0.966365  
     113A      0.986102   114A      1.004372   115A      1.018490  
     116A      1.033312   117A      1.034199   118A      1.052089  
     119A      1.052223   120A      1.068184   121A      1.073204  
     122A      1.078218   123A      1.078917   124A      1.111631  
     125A      1.113871   126A      1.129203   127A      1.139041  
     128A      1.166907   129A      1.182250   130A      1.190693  
     131A      1.191801   132A      1.199835   133A      1.201158  
     134A      1.219862   135A      1.221567   136A      1.243875  
     137A      1.253261   138A      1.262911   139A      1.277751  
     140A      1.302030   141A      1.302667   142A      1.347220  
     143A      1.352296   144A      1.362160   145A      1.373827  
     146A      1.382015   147A      1.425155   148A      1.426907  
     149A      1.435504   150A      1.450955   151A      1.493214  
     152A      1.496119   153A      1.500004   154A      1.523689  
     155A      1.544070   156A      1.549786   157A      1.552540  
     158A      1.579469   159A      1.582356   160A      1.614523  
     161A      1.641602   162A      1.649209   163A      1.654853  
     164A      1.663944   165A      1.675577   166A      1.683109  
     167A      1.702064   168A      1.725216   169A      1.748516  
     170A      1.762530   171A      1.772634   172A      1.789758  
     173A      1.826876   174A      1.839491   175A      1.841407  
     176A      1.883082   177A      1.884347   178A      1.889674  
     179A      1.909223   180A      1.937671   181A      1.950206  
     182A      1.973389   183A      1.983536   184A      1.991384  
     185A      2.012812   186A      2.023304   187A      2.032120  
     188A      2.069128   189A      2.104015   190A      2.109820  
     191A      2.153594   192A      2.169119   193A      2.201091  
     194A      2.204667   195A      2.208249   196A      2.213703  
     197A      2.254256   198A      2.262073   199A      2.270574  
     200A      2.296028   201A      2.314843   202A      2.332711  
     203A      2.338526   204A      2.380897   205A      2.423542  
     206A      2.429222   207A      2.490672   208A      2.499057  
     209A      2.506873   210A      2.586599   211A      2.609334  
     212A      2.661612   213A      2.735924   214A      2.753795  
     215A      2.800704   216A      2.954051   217A      3.014290  
     218A      3.122075   219A      3.155007   220A      3.227816  
     221A      3.251949   222A      3.347479   223A      3.350297  
     224A      3.379855   225A      3.382240   226A      3.447732  
     227A      3.490052   228A      3.501912   229A      3.534391  
     230A      3.553073   231A      3.562560   232A      3.604777  
     233A      3.606313   234A      3.619739   235A      3.668180  
     236A      3.682954   237A      3.690350   238A      3.704008  
     239A      3.706861   240A      3.749022   241A      3.789148  
     242A      3.795466   243A      3.849403   244A      3.868583  
     245A      3.893387   246A      3.906445   247A      3.913343  
     248A      3.942962   249A      3.943825   250A      3.974186  
     251A      3.982738   252A      4.015014   253A      4.030005  
     254A      4.040052   255A      4.060927   256A      4.072693  
     257A      4.115900   258A      4.116519   259A      4.150407  
     260A      4.153948   261A      4.204785   262A      4.240957  
     263A      4.241291   264A      4.247640   265A      4.295759  
     266A      4.343238   267A      4.353407   268A      4.368009  
     269A      4.413414   270A      4.434857   271A      4.444811  
     272A      4.481354   273A      4.515525   274A      4.534890  
     275A      4.555441   276A      4.562673   277A      4.584146  
     278A      4.649168   279A      4.649701   280A      4.667641  
     281A      4.694496   282A      4.725832   283A      4.729477  
     284A      4.766915   285A      4.783158   286A      4.827092  
     287A      4.839666   288A      4.848828   289A      4.877353  
     290A      4.960214   291A      4.982739   292A      5.022082  
     293A      5.032322   294A      5.083455   295A      5.112253  
     296A      5.115461   297A      5.142008   298A      5.198112  
     299A      5.202114   300A      5.279038   301A      5.280734  
     302A      5.319369   303A      5.332284   304A      5.388983  
     305A      5.397845   306A      5.404546   307A      5.433347  
     308A      5.469270   309A      5.473493   310A      5.523310  
     311A      5.540178   312A      5.570584   313A      5.577005  
     314A      5.620084   315A      5.621111   316A      5.708123  
     317A      5.732037   318A      5.783028   319A      5.836190  
     320A      5.916852   321A      5.946756   322A      5.989889  
     323A      6.004325   324A      6.037298   325A      6.107940  
     326A      6.163043   327A      6.164436   328A      6.170690  
     329A      6.225605   330A      6.274406   331A      6.398264  
     332A      6.534425   333A      6.689619   334A      6.701473  
     335A      6.750488   336A      6.781991   337A      6.806029  
     338A      6.868172   339A      7.182609   340A      7.705018  
     341A      8.137694   342A     16.159261   343A     17.501317  
     344A     19.115577   345A     20.639392  

    Final Occupation by Irrep:
              A 
    DOCC [    16 ]

  @DF-RHF Final Energy:  -172.14252005932175

   => Energetics <=

    Nuclear Repulsion Energy =            121.1486544999867903
    One-Electron Energy =                -471.4102641386302821
    Two-Electron Energy =                 178.1190895793217521
    Total Energy =                       -172.1425200593217539

Computation Completed

*** tstop() called on node100.bme.utexas.edu at Wed Nov  4 04:11:31 2020
Module time:
	user time   =      31.74 seconds =       0.53 minutes
	system time =       1.22 seconds =       0.02 minutes
	total time  =          5 seconds =       0.08 minutes
Total time:
	user time   =      31.74 seconds =       0.53 minutes
	system time =       1.22 seconds =       0.02 minutes
	total time  =          5 seconds =       0.08 minutes
   => Loading Basis Set <=

    Name: (AUG-CC-PVTZ AUX)
    Role: RIFIT
    Keyword: DF_BASIS_MP2
    atoms 1    entry N          line   206 file /home/xy3866/psi4conda/share/psi4/basis/aug-cc-pvtz-ri.gbs 
    atoms 2-4  entry C          line   148 file /home/xy3866/psi4conda/share/psi4/basis/aug-cc-pvtz-ri.gbs 
    atoms 5-11 entry H          line    30 file /home/xy3866/psi4conda/share/psi4/basis/aug-cc-pvtz-ri.gbs 


*** tstart() called on node100.bme.utexas.edu
*** at Wed Nov  4 04:11:31 2020


  //>>>>>>>>>>>>>>>>>>>>>>>>>>>>>>>>>>>//
  //               DFMP2               //
  //<<<<<<<<<<<<<<<<<<<<<<<<<<<<<<<<<<<//

	 --------------------------------------------------------
	                          DF-MP2                         
	      2nd-Order Density-Fitted Moller-Plesset Theory     
	              RMP2 Wavefunction,   8 Threads             
	                                                         
	        Rob Parrish, Justin Turney, Andy Simmonett,      
	           Ed Hohenstein, and C. David Sherrill          
	 --------------------------------------------------------

   => Auxiliary Basis Set <=

  Basis Set: (AUG-CC-PVTZ AUX)
    Blend: AUG-CC-PVTZ-RI
    Number of shells: 210
    Number of basis function: 746
    Number of Cartesian functions: 929
    Spherical Harmonics?: true
    Max angular momentum: 4

	 --------------------------------------------------------
	                 NBF =   345, NAUX =   746
	 --------------------------------------------------------
	   CLASS    FOCC     OCC    AOCC    AVIR     VIR    FVIR
	   PAIRS       0      16      16     329     329       0
	 --------------------------------------------------------

  DFHelper Memory: AOs need 0.687 GiB; user supplied 22.352 GiB. Using in-core AOs.


         ------------------------------------------------------------
                                     CPHF                           
                                  Rob Parrish                       
         ------------------------------------------------------------

  ==> Geometry <==

    Molecular point group: c1
    Full point group: C1

    Geometry (in Angstrom), charge = 0, multiplicity = 1:

       Center              X                  Y                   Z               Mass       
    ------------   -----------------  -----------------  -----------------  -----------------
         N            0.052441017560     1.384556482439     0.000082899131    14.003074004430
         C            0.016120017560     0.098311482439    -0.000278100869    12.000000000000
         C           -1.327817982440    -0.577570517561     0.000045899131    12.000000000000
         C            1.216626017560    -0.816954517561     0.000023899131    12.000000000000
         H           -2.115514982440     0.176470482439     0.000007899131     1.007825032230
         H           -1.437375982440    -1.218700517561    -0.881325100869     1.007825032230
         H           -1.437144982440    -1.218242517561     0.881800899131     1.007825032230
         H            2.150747017560    -0.248910517561    -0.003053100869     1.007825032230
         H            1.199833017560    -1.469844517561    -0.879103100869     1.007825032230
         H            1.202769017560    -1.464915517561     0.882880899131     1.007825032230
         H            0.840058417560     1.640423082439     0.000119999131     1.007825032230

  Nuclear repulsion =  121.148654499986790
  Reference energy  = -172.142520059321754

  ==> Basis Set <==

  Basis Set: AUG-CC-PVTZ
    Blend: AUG-CC-PVTZ
    Number of shells: 119
    Number of basis function: 345
    Number of Cartesian functions: 395
    Spherical Harmonics?: true
    Max angular momentum: 3

  ==> CGRSolver (by Rob Parrish) <==

   Number of roots    =         1
   Preconditioning    =    JACOBI
   Convergence cutoff =     1E-06
   Maximum iterations =       100

  ==> CPHFRHamiltonian (by Rob Parrish) <== 

  ==> MemDFJK: Density-Fitted J/K Matrices <==

    J tasked:                   Yes
    K tasked:                   Yes
    wK tasked:                   No
    OpenMP threads:               8
    Memory [MiB]:             22888
    Algorithm:                 Core
    Schwarz Cutoff:           1E-12
    Mask sparsity (%):       0.3209
    Fitting Condition:        1E-10

   => Auxiliary Basis Set <=

  Basis Set: (AUG-CC-PVTZ AUX)
    Blend: AUG-CC-PVTZ-JKFIT
    Number of shells: 218
    Number of basis function: 738
    Number of Cartesian functions: 909
    Spherical Harmonics?: true
    Max angular momentum: 4

  ==> CPHF Iterations <==

  => Iterations <=

             Iter  Converged  Remaining    Residual
  CGR           1          0          1   9.398E-02
  CGR           2          0          1   2.679E-02
  CGR           3          0          1   8.371E-03
  CGR           4          0          1   2.507E-03
  CGR           5          0          1   9.393E-04
  CGR           6          0          1   3.559E-04
  CGR           7          0          1   6.866E-05
  CGR           8          0          1   1.446E-05
  CGR           9          0          1   3.026E-06
  CGR          10          1          0   7.604E-07

    CGRSolver converged.

	-----------------------------------------------------------
	 ==================> DF-MP2 Energies <==================== 
	-----------------------------------------------------------
	 Reference Energy          =    -172.1425200593217539 [Eh]
	 Singles Energy            =      -0.0000000000000000 [Eh]
	 Same-Spin Energy          =      -0.1763964063521376 [Eh]
	 Opposite-Spin Energy      =      -0.6240038203473249 [Eh]
	 Correlation Energy        =      -0.8004002266994625 [Eh]
	 Total Energy              =    -172.9429202860212058 [Eh]
	-----------------------------------------------------------
	 ================> DF-SCS-MP2 Energies <================== 
	-----------------------------------------------------------
	 SCS Same-Spin Scale       =       0.3333333333333333 [-]
	 SCS Opposite-Spin Scale   =       1.2000000000000000 [-]
	 SCS Same-Spin Energy      =      -0.0587988021173792 [Eh]
	 SCS Opposite-Spin Energy  =      -0.7488045844167899 [Eh]
	 SCS Correlation Energy    =      -0.8076033865341691 [Eh]
	 SCS Total Energy          =    -172.9501234458559225 [Eh]
	-----------------------------------------------------------



Properties will be evaluated at  -0.000000,   0.000000,   0.000000 [a0]

Properties computed using the MP2 density matrix

  Nuclear Dipole Moment: [e a0]
     X:     0.3780      Y:    -3.5699      Z:     0.0012

  Electronic Dipole Moment: [e a0]
     X:     0.1138      Y:     2.7068      Z:    -0.0011

  Dipole Moment: [e a0]
     X:     0.4918      Y:    -0.8631      Z:     0.0002     Total:     0.9934

  Dipole Moment: [D]
     X:     1.2500      Y:    -2.1938      Z:     0.0004     Total:     2.5250


*** tstop() called on node100.bme.utexas.edu at Wed Nov  4 04:11:44 2020
Module time:
	user time   =      86.40 seconds =       1.44 minutes
	system time =       2.37 seconds =       0.04 minutes
	total time  =         13 seconds =       0.22 minutes
Total time:
	user time   =     118.95 seconds =       1.98 minutes
	system time =       3.65 seconds =       0.06 minutes
	total time  =         18 seconds =       0.30 minutes

    Psi4 stopped on: Wednesday, 04 November 2020 04:11AM
    Psi4 wall time for execution: 0:00:18.17

*** Psi4 exiting successfully. Buy a developer a beer!
