169270                                                                  
Freq      RMP2-FC                                                     6-31G(d)            
Number of atoms                            I               18
Info1-9                                    I   N=           9
          30          28        1002           0           0         100
           6           2           1
Charge                                     I                0
Multiplicity                               I                1
Number of electrons                        I              160
Number of alpha electrons                  I               80
Number of beta electrons                   I               80
Number of basis functions                  I              224
Number of independent functions            I              224
Number of point charges in /Mol/           I                0
Number of translation vectors              I                0
Atomic numbers                             I   N=          18
          35          35          35           6           6           6
           6           6           6           6           6           1
           1           1           1           1           1           1
Nuclear charges                            R   N=          18
  3.50000000E+01  3.50000000E+01  3.50000000E+01  6.00000000E+00  6.00000000E+00
  6.00000000E+00  6.00000000E+00  6.00000000E+00  6.00000000E+00  6.00000000E+00
  6.00000000E+00  1.00000000E+00  1.00000000E+00  1.00000000E+00  1.00000000E+00
  1.00000000E+00  1.00000000E+00  1.00000000E+00
Current cartesian coordinates              R   N=          54
 -4.79615866E+00 -2.21862494E-05  1.78545260E+00 -9.97896985E-01 -2.99750528E+00
 -1.76928192E+00 -9.97921775E-01  2.99752990E+00 -1.76924827E+00  5.41445369E-01
 -6.93311933E-06  2.52296899E+00  3.26036444E+00 -2.64572530E-06  1.69664629E+00
 -1.37489475E+00 -2.03730708E-06  3.52720608E-01  4.54748434E+00 -2.28365308E+00
  1.31765897E+00  4.54747625E+00  2.28365030E+00  1.31764892E+00  7.06762720E+00
 -2.28278877E+00  5.44431031E-01  7.06761942E+00  2.28279018E+00  5.44422386E-01
  8.33131880E+00  1.94893817E-06  1.48058186E-01  1.24194343E-01  1.67149766E+00
  3.67361430E+00  1.24198415E-01 -1.67151964E+00  3.67360458E+00  3.57298560E+00
 -4.06493488E+00  1.63512972E+00  3.57297198E+00  4.06493048E+00  1.63511242E+00
  8.04869739E+00 -4.06595732E+00  2.61786439E-01  8.04868336E+00  4.06596083E+00
  2.61769735E-01  1.02968321E+01  3.84534013E-06 -4.50633774E-01
Force Field                                I                0
Int Atom Types                             I   N=          18
           0           0           0           0           0           0
           0           0           0           0           0           0
           0           0           0           0           0           0
MM charges                                 R   N=          18
  0.00000000E+00  0.00000000E+00  0.00000000E+00  0.00000000E+00  0.00000000E+00
  0.00000000E+00  0.00000000E+00  0.00000000E+00  0.00000000E+00  0.00000000E+00
  0.00000000E+00  0.00000000E+00  0.00000000E+00  0.00000000E+00  0.00000000E+00
  0.00000000E+00  0.00000000E+00  0.00000000E+00
Integer atomic weights                     I   N=          18
          79          79          79          12          12          12
          12          12          12          12          12           1
           1           1           1           1           1           1
Real atomic weights                        R   N=          18
  7.89183361E+01  7.89183361E+01  7.89183361E+01  1.20000000E+01  1.20000000E+01
  1.20000000E+01  1.20000000E+01  1.20000000E+01  1.20000000E+01  1.20000000E+01
  1.20000000E+01  1.00782504E+00  1.00782504E+00  1.00782504E+00  1.00782504E+00
  1.00782504E+00  1.00782504E+00  1.00782504E+00
Atom fragment info                         I   N=          18
           0           0           0           0           0           0
           0           0           0           0           0           0
           0           0           0           0           0           0
Atom residue num                           I   N=          18
           0           0           0           0           0           0
           0           0           0           0           0           0
           0           0           0           0           0           0
Nuclear spins                              I   N=          18
           3           3           3           0           0           0
           0           0           0           0           0           1
           1           1           1           1           1           1
Nuclear ZEff                               R   N=          18
 -2.45000000E+01 -2.45000000E+01 -2.45000000E+01 -3.60000000E+00 -3.60000000E+00
 -3.60000000E+00 -3.60000000E+00 -3.60000000E+00 -3.60000000E+00 -3.60000000E+00
 -3.60000000E+00 -1.00000000E+00 -1.00000000E+00 -1.00000000E+00 -1.00000000E+00
 -1.00000000E+00 -1.00000000E+00 -1.00000000E+00
Nuclear QMom                               R   N=          18
  3.13000000E+01  3.13000000E+01  3.13000000E+01  0.00000000E+00  0.00000000E+00
  0.00000000E+00  0.00000000E+00  0.00000000E+00  0.00000000E+00  0.00000000E+00
  0.00000000E+00  0.00000000E+00  0.00000000E+00  0.00000000E+00  0.00000000E+00
  0.00000000E+00  0.00000000E+00  0.00000000E+00
Nuclear GFac                               R   N=          18
  2.10639900E+00  2.10639900E+00  2.10639900E+00  0.00000000E+00  0.00000000E+00
  0.00000000E+00  0.00000000E+00  0.00000000E+00  0.00000000E+00  0.00000000E+00
  0.00000000E+00  2.79284600E+00  2.79284600E+00  2.79284600E+00  2.79284600E+00
  2.79284600E+00  2.79284600E+00  2.79284600E+00
MicOpt                                     I   N=          18
          -1          -1          -1          -1          -1          -1
          -1          -1          -1          -1          -1          -1
          -1          -1          -1          -1          -1          -1
Number of contracted shells                I               82
Number of primitive shells                 I              209
Pure/Cartesian d shells                    I                1
Pure/Cartesian f shells                    I                0
Highest angular momentum                   I                2
Largest degree of contraction              I                8
Shell types                                I   N=          82
           0           0           0           0           0           0
           1           1           1           1           2           2
           0           0           0           0           0           0
           1           1           1           1           2           2
           0           0           0           0           0           0
           1           1           1           1           2           2
           0          -1          -1           2           0          -1
          -1           2           0          -1          -1           2
           0          -1          -1           2           0          -1
          -1           2           0          -1          -1           2
           0          -1          -1           2           0          -1
          -1           2           0           0           0           0
           0           0           0           0           0           0
           0           0           0           0
Number of primitives per shell             I   N=          82
           8           2           1           1           1           1
           6           3           1           1           5           1
           8           2           1           1           1           1
           6           3           1           1           5           1
           8           2           1           1           1           1
           6           3           1           1           5           1
           6           3           1           1           6           3
           1           1           6           3           1           1
           6           3           1           1           6           3
           1           1           6           3           1           1
           6           3           1           1           6           3
           1           1           3           1           3           1
           3           1           3           1           3           1
           3           1           3           1
Shell to atom map                          I   N=          82
           1           1           1           1           1           1
           1           1           1           1           1           1
           2           2           2           2           2           2
           2           2           2           2           2           2
           3           3           3           3           3           3
           3           3           3           3           3           3
           4           4           4           4           5           5
           5           5           6           6           6           6
           7           7           7           7           8           8
           8           8           9           9           9           9
          10          10          10          10          11          11
          11          11          12          12          13          13
          14          14          15          15          16          16
          17          17          18          18
Primitive exponents                        R   N=         209
  5.74300000E+05  8.90700000E+04  2.02100000E+04  5.73600000E+03  1.89900000E+03
  6.98700000E+02  2.77800000E+02  1.15200000E+02  3.59700000E+01  1.55000000E+01
  4.77100000E+00  2.07700000E+00  4.21100000E-01  1.61000000E-01  4.40600000E+03
  1.04200000E+03  3.32100000E+02  1.21900000E+02  4.92400000E+01  2.11600000E+01
  8.83600000E+00  3.82900000E+00  1.64300000E+00  4.65000000E-01  1.42700000E-01
  1.08400000E+02  3.07100000E+01  1.06600000E+01  3.85100000E+00  1.31700000E+00
  3.38000000E-01  5.74300000E+05  8.90700000E+04  2.02100000E+04  5.73600000E+03
  1.89900000E+03  6.98700000E+02  2.77800000E+02  1.15200000E+02  3.59700000E+01
  1.55000000E+01  4.77100000E+00  2.07700000E+00  4.21100000E-01  1.61000000E-01
  4.40600000E+03  1.04200000E+03  3.32100000E+02  1.21900000E+02  4.92400000E+01
  2.11600000E+01  8.83600000E+00  3.82900000E+00  1.64300000E+00  4.65000000E-01
  1.42700000E-01  1.08400000E+02  3.07100000E+01  1.06600000E+01  3.85100000E+00
  1.31700000E+00  3.38000000E-01  5.74300000E+05  8.90700000E+04  2.02100000E+04
  5.73600000E+03  1.89900000E+03  6.98700000E+02  2.77800000E+02  1.15200000E+02
  3.59700000E+01  1.55000000E+01  4.77100000E+00  2.07700000E+00  4.21100000E-01
  1.61000000E-01  4.40600000E+03  1.04200000E+03  3.32100000E+02  1.21900000E+02
  4.92400000E+01  2.11600000E+01  8.83600000E+00  3.82900000E+00  1.64300000E+00
  4.65000000E-01  1.42700000E-01  1.08400000E+02  3.07100000E+01  1.06600000E+01
  3.85100000E+00  1.31700000E+00  3.38000000E-01  3.04752488E+03  4.57369518E+02
  1.03948685E+02  2.92101553E+01  9.28666296E+00  3.16392696E+00  7.86827235E+00
  1.88128854E+00  5.44249258E-01  1.68714478E-01  8.00000000E-01  3.04752488E+03
  4.57369518E+02  1.03948685E+02  2.92101553E+01  9.28666296E+00  3.16392696E+00
  7.86827235E+00  1.88128854E+00  5.44249258E-01  1.68714478E-01  8.00000000E-01
  3.04752488E+03  4.57369518E+02  1.03948685E+02  2.92101553E+01  9.28666296E+00
  3.16392696E+00  7.86827235E+00  1.88128854E+00  5.44249258E-01  1.68714478E-01
  8.00000000E-01  3.04752488E+03  4.57369518E+02  1.03948685E+02  2.92101553E+01
  9.28666296E+00  3.16392696E+00  7.86827235E+00  1.88128854E+00  5.44249258E-01
  1.68714478E-01  8.00000000E-01  3.04752488E+03  4.57369518E+02  1.03948685E+02
  2.92101553E+01  9.28666296E+00  3.16392696E+00  7.86827235E+00  1.88128854E+00
  5.44249258E-01  1.68714478E-01  8.00000000E-01  3.04752488E+03  4.57369518E+02
  1.03948685E+02  2.92101553E+01  9.28666296E+00  3.16392696E+00  7.86827235E+00
  1.88128854E+00  5.44249258E-01  1.68714478E-01  8.00000000E-01  3.04752488E+03
  4.57369518E+02  1.03948685E+02  2.92101553E+01  9.28666296E+00  3.16392696E+00
  7.86827235E+00  1.88128854E+00  5.44249258E-01  1.68714478E-01  8.00000000E-01
  3.04752488E+03  4.57369518E+02  1.03948685E+02  2.92101553E+01  9.28666296E+00
  3.16392696E+00  7.86827235E+00  1.88128854E+00  5.44249258E-01  1.68714478E-01
  8.00000000E-01  1.87311370E+01  2.82539436E+00  6.40121692E-01  1.61277759E-01
  1.87311370E+01  2.82539436E+00  6.40121692E-01  1.61277759E-01  1.87311370E+01
  2.82539436E+00  6.40121692E-01  1.61277759E-01  1.87311370E+01  2.82539436E+00
  6.40121692E-01  1.61277759E-01  1.87311370E+01  2.82539436E+00  6.40121692E-01
  1.61277759E-01  1.87311370E+01  2.82539436E+00  6.40121692E-01  1.61277759E-01
  1.87311370E+01  2.82539436E+00  6.40121692E-01  1.61277759E-01
Contraction coefficients                   R   N=         209
  2.10682753E-04  1.61271721E-03  8.36010959E-03  3.40275588E-02  1.08515001E-01
  2.67396944E-01  4.29567221E-01  2.86993117E-01  2.77772914E-01  7.47057636E-01
  1.00000000E+00  1.00000000E+00  1.00000000E+00  1.00000000E+00  1.39552623E-03
  1.23748283E-02  6.10175241E-02  2.26775547E-01  4.05975875E-01  4.50692322E-01
  2.92018585E-01  5.30220862E-01  2.75287404E-01  1.00000000E+00  1.00000000E+00
  2.15879371E-02  1.34176036E-01  3.67870647E-01  4.91895206E-01  2.68321979E-01
  1.00000000E+00  2.10682753E-04  1.61271721E-03  8.36010959E-03  3.40275588E-02
  1.08515001E-01  2.67396944E-01  4.29567221E-01  2.86993117E-01  2.77772914E-01
  7.47057636E-01  1.00000000E+00  1.00000000E+00  1.00000000E+00  1.00000000E+00
  1.39552623E-03  1.23748283E-02  6.10175241E-02  2.26775547E-01  4.05975875E-01
  4.50692322E-01  2.92018585E-01  5.30220862E-01  2.75287404E-01  1.00000000E+00
  1.00000000E+00  2.15879371E-02  1.34176036E-01  3.67870647E-01  4.91895206E-01
  2.68321979E-01  1.00000000E+00  2.10682753E-04  1.61271721E-03  8.36010959E-03
  3.40275588E-02  1.08515001E-01  2.67396944E-01  4.29567221E-01  2.86993117E-01
  2.77772914E-01  7.47057636E-01  1.00000000E+00  1.00000000E+00  1.00000000E+00
  1.00000000E+00  1.39552623E-03  1.23748283E-02  6.10175241E-02  2.26775547E-01
  4.05975875E-01  4.50692322E-01  2.92018585E-01  5.30220862E-01  2.75287404E-01
  1.00000000E+00  1.00000000E+00  2.15879371E-02  1.34176036E-01  3.67870647E-01
  4.91895206E-01  2.68321979E-01  1.00000000E+00  1.83473713E-03  1.40373228E-02
  6.88426223E-02  2.32184443E-01  4.67941348E-01  3.62311985E-01 -1.19332420E-01
 -1.60854152E-01  1.14345644E+00  1.00000000E+00  1.00000000E+00  1.83473713E-03
  1.40373228E-02  6.88426223E-02  2.32184443E-01  4.67941348E-01  3.62311985E-01
 -1.19332420E-01 -1.60854152E-01  1.14345644E+00  1.00000000E+00  1.00000000E+00
  1.83473713E-03  1.40373228E-02  6.88426223E-02  2.32184443E-01  4.67941348E-01
  3.62311985E-01 -1.19332420E-01 -1.60854152E-01  1.14345644E+00  1.00000000E+00
  1.00000000E+00  1.83473713E-03  1.40373228E-02  6.88426223E-02  2.32184443E-01
  4.67941348E-01  3.62311985E-01 -1.19332420E-01 -1.60854152E-01  1.14345644E+00
  1.00000000E+00  1.00000000E+00  1.83473713E-03  1.40373228E-02  6.88426223E-02
  2.32184443E-01  4.67941348E-01  3.62311985E-01 -1.19332420E-01 -1.60854152E-01
  1.14345644E+00  1.00000000E+00  1.00000000E+00  1.83473713E-03  1.40373228E-02
  6.88426223E-02  2.32184443E-01  4.67941348E-01  3.62311985E-01 -1.19332420E-01
 -1.60854152E-01  1.14345644E+00  1.00000000E+00  1.00000000E+00  1.83473713E-03
  1.40373228E-02  6.88426223E-02  2.32184443E-01  4.67941348E-01  3.62311985E-01
 -1.19332420E-01 -1.60854152E-01  1.14345644E+00  1.00000000E+00  1.00000000E+00
  1.83473713E-03  1.40373228E-02  6.88426223E-02  2.32184443E-01  4.67941348E-01
  3.62311985E-01 -1.19332420E-01 -1.60854152E-01  1.14345644E+00  1.00000000E+00
  1.00000000E+00  3.34946043E-02  2.34726953E-01  8.13757326E-01  1.00000000E+00
  3.34946043E-02  2.34726953E-01  8.13757326E-01  1.00000000E+00  3.34946043E-02
  2.34726953E-01  8.13757326E-01  1.00000000E+00  3.34946043E-02  2.34726953E-01
  8.13757326E-01  1.00000000E+00  3.34946043E-02  2.34726953E-01  8.13757326E-01
  1.00000000E+00  3.34946043E-02  2.34726953E-01  8.13757326E-01  1.00000000E+00
  3.34946043E-02  2.34726953E-01  8.13757326E-01  1.00000000E+00
P(S=P) Contraction coefficients            R   N=         209
  0.00000000E+00  0.00000000E+00  0.00000000E+00  0.00000000E+00  0.00000000E+00
  0.00000000E+00  0.00000000E+00  0.00000000E+00  0.00000000E+00  0.00000000E+00
  0.00000000E+00  0.00000000E+00  0.00000000E+00  0.00000000E+00  0.00000000E+00
  0.00000000E+00  0.00000000E+00  0.00000000E+00  0.00000000E+00  0.00000000E+00
  0.00000000E+00  0.00000000E+00  0.00000000E+00  0.00000000E+00  0.00000000E+00
  0.00000000E+00  0.00000000E+00  0.00000000E+00  0.00000000E+00  0.00000000E+00
  0.00000000E+00  0.00000000E+00  0.00000000E+00  0.00000000E+00  0.00000000E+00
  0.00000000E+00  0.00000000E+00  0.00000000E+00  0.00000000E+00  0.00000000E+00
  0.00000000E+00  0.00000000E+00  0.00000000E+00  0.00000000E+00  0.00000000E+00
  0.00000000E+00  0.00000000E+00  0.00000000E+00  0.00000000E+00  0.00000000E+00
  0.00000000E+00  0.00000000E+00  0.00000000E+00  0.00000000E+00  0.00000000E+00
  0.00000000E+00  0.00000000E+00  0.00000000E+00  0.00000000E+00  0.00000000E+00
  0.00000000E+00  0.00000000E+00  0.00000000E+00  0.00000000E+00  0.00000000E+00
  0.00000000E+00  0.00000000E+00  0.00000000E+00  0.00000000E+00  0.00000000E+00
  0.00000000E+00  0.00000000E+00  0.00000000E+00  0.00000000E+00  0.00000000E+00
  0.00000000E+00  0.00000000E+00  0.00000000E+00  0.00000000E+00  0.00000000E+00
  0.00000000E+00  0.00000000E+00  0.00000000E+00  0.00000000E+00  0.00000000E+00
  0.00000000E+00  0.00000000E+00  0.00000000E+00  0.00000000E+00  0.00000000E+00
  0.00000000E+00  0.00000000E+00  0.00000000E+00  0.00000000E+00  0.00000000E+00
  0.00000000E+00  0.00000000E+00  0.00000000E+00  0.00000000E+00  6.89990666E-02
  3.16423961E-01  7.44308291E-01  1.00000000E+00  0.00000000E+00  0.00000000E+00
  0.00000000E+00  0.00000000E+00  0.00000000E+00  0.00000000E+00  0.00000000E+00
  6.89990666E-02  3.16423961E-01  7.44308291E-01  1.00000000E+00  0.00000000E+00
  0.00000000E+00  0.00000000E+00  0.00000000E+00  0.00000000E+00  0.00000000E+00
  0.00000000E+00  6.89990666E-02  3.16423961E-01  7.44308291E-01  1.00000000E+00
  0.00000000E+00  0.00000000E+00  0.00000000E+00  0.00000000E+00  0.00000000E+00
  0.00000000E+00  0.00000000E+00  6.89990666E-02  3.16423961E-01  7.44308291E-01
  1.00000000E+00  0.00000000E+00  0.00000000E+00  0.00000000E+00  0.00000000E+00
  0.00000000E+00  0.00000000E+00  0.00000000E+00  6.89990666E-02  3.16423961E-01
  7.44308291E-01  1.00000000E+00  0.00000000E+00  0.00000000E+00  0.00000000E+00
  0.00000000E+00  0.00000000E+00  0.00000000E+00  0.00000000E+00  6.89990666E-02
  3.16423961E-01  7.44308291E-01  1.00000000E+00  0.00000000E+00  0.00000000E+00
  0.00000000E+00  0.00000000E+00  0.00000000E+00  0.00000000E+00  0.00000000E+00
  6.89990666E-02  3.16423961E-01  7.44308291E-01  1.00000000E+00  0.00000000E+00
  0.00000000E+00  0.00000000E+00  0.00000000E+00  0.00000000E+00  0.00000000E+00
  0.00000000E+00  6.89990666E-02  3.16423961E-01  7.44308291E-01  1.00000000E+00
  0.00000000E+00  0.00000000E+00  0.00000000E+00  0.00000000E+00  0.00000000E+00
  0.00000000E+00  0.00000000E+00  0.00000000E+00  0.00000000E+00  0.00000000E+00
  0.00000000E+00  0.00000000E+00  0.00000000E+00  0.00000000E+00  0.00000000E+00
  0.00000000E+00  0.00000000E+00  0.00000000E+00  0.00000000E+00  0.00000000E+00
  0.00000000E+00  0.00000000E+00  0.00000000E+00  0.00000000E+00  0.00000000E+00
  0.00000000E+00  0.00000000E+00  0.00000000E+00  0.00000000E+00
Coordinates of each shell                  R   N=         246
 -4.79615866E+00 -2.21862494E-05  1.78545260E+00 -4.79615866E+00 -2.21862494E-05
  1.78545260E+00 -4.79615866E+00 -2.21862494E-05  1.78545260E+00 -4.79615866E+00
 -2.21862494E-05  1.78545260E+00 -4.79615866E+00 -2.21862494E-05  1.78545260E+00
 -4.79615866E+00 -2.21862494E-05  1.78545260E+00 -4.79615866E+00 -2.21862494E-05
  1.78545260E+00 -4.79615866E+00 -2.21862494E-05  1.78545260E+00 -4.79615866E+00
 -2.21862494E-05  1.78545260E+00 -4.79615866E+00 -2.21862494E-05  1.78545260E+00
 -4.79615866E+00 -2.21862494E-05  1.78545260E+00 -4.79615866E+00 -2.21862494E-05
  1.78545260E+00 -9.97896985E-01 -2.99750528E+00 -1.76928192E+00 -9.97896985E-01
 -2.99750528E+00 -1.76928192E+00 -9.97896985E-01 -2.99750528E+00 -1.76928192E+00
 -9.97896985E-01 -2.99750528E+00 -1.76928192E+00 -9.97896985E-01 -2.99750528E+00
 -1.76928192E+00 -9.97896985E-01 -2.99750528E+00 -1.76928192E+00 -9.97896985E-01
 -2.99750528E+00 -1.76928192E+00 -9.97896985E-01 -2.99750528E+00 -1.76928192E+00
 -9.97896985E-01 -2.99750528E+00 -1.76928192E+00 -9.97896985E-01 -2.99750528E+00
 -1.76928192E+00 -9.97896985E-01 -2.99750528E+00 -1.76928192E+00 -9.97896985E-01
 -2.99750528E+00 -1.76928192E+00 -9.97921775E-01  2.99752990E+00 -1.76924827E+00
 -9.97921775E-01  2.99752990E+00 -1.76924827E+00 -9.97921775E-01  2.99752990E+00
 -1.76924827E+00 -9.97921775E-01  2.99752990E+00 -1.76924827E+00 -9.97921775E-01
  2.99752990E+00 -1.76924827E+00 -9.97921775E-01  2.99752990E+00 -1.76924827E+00
 -9.97921775E-01  2.99752990E+00 -1.76924827E+00 -9.97921775E-01  2.99752990E+00
 -1.76924827E+00 -9.97921775E-01  2.99752990E+00 -1.76924827E+00 -9.97921775E-01
  2.99752990E+00 -1.76924827E+00 -9.97921775E-01  2.99752990E+00 -1.76924827E+00
 -9.97921775E-01  2.99752990E+00 -1.76924827E+00  5.41445369E-01 -6.93311933E-06
  2.52296899E+00  5.41445369E-01 -6.93311933E-06  2.52296899E+00  5.41445369E-01
 -6.93311933E-06  2.52296899E+00  5.41445369E-01 -6.93311933E-06  2.52296899E+00
  3.26036444E+00 -2.64572530E-06  1.69664629E+00  3.26036444E+00 -2.64572530E-06
  1.69664629E+00  3.26036444E+00 -2.64572530E-06  1.69664629E+00  3.26036444E+00
 -2.64572530E-06  1.69664629E+00 -1.37489475E+00 -2.03730708E-06  3.52720608E-01
 -1.37489475E+00 -2.03730708E-06  3.52720608E-01 -1.37489475E+00 -2.03730708E-06
  3.52720608E-01 -1.37489475E+00 -2.03730708E-06  3.52720608E-01  4.54748434E+00
 -2.28365308E+00  1.31765897E+00  4.54748434E+00 -2.28365308E+00  1.31765897E+00
  4.54748434E+00 -2.28365308E+00  1.31765897E+00  4.54748434E+00 -2.28365308E+00
  1.31765897E+00  4.54747625E+00  2.28365030E+00  1.31764892E+00  4.54747625E+00
  2.28365030E+00  1.31764892E+00  4.54747625E+00  2.28365030E+00  1.31764892E+00
  4.54747625E+00  2.28365030E+00  1.31764892E+00  7.06762720E+00 -2.28278877E+00
  5.44431031E-01  7.06762720E+00 -2.28278877E+00  5.44431031E-01  7.06762720E+00
 -2.28278877E+00  5.44431031E-01  7.06762720E+00 -2.28278877E+00  5.44431031E-01
  7.06761942E+00  2.28279018E+00  5.44422386E-01  7.06761942E+00  2.28279018E+00
  5.44422386E-01  7.06761942E+00  2.28279018E+00  5.44422386E-01  7.06761942E+00
  2.28279018E+00  5.44422386E-01  8.33131880E+00  1.94893817E-06  1.48058186E-01
  8.33131880E+00  1.94893817E-06  1.48058186E-01  8.33131880E+00  1.94893817E-06
  1.48058186E-01  8.33131880E+00  1.94893817E-06  1.48058186E-01  1.24194343E-01
  1.67149766E+00  3.67361430E+00  1.24194343E-01  1.67149766E+00  3.67361430E+00
  1.24198415E-01 -1.67151964E+00  3.67360458E+00  1.24198415E-01 -1.67151964E+00
  3.67360458E+00  3.57298560E+00 -4.06493488E+00  1.63512972E+00  3.57298560E+00
 -4.06493488E+00  1.63512972E+00  3.57297198E+00  4.06493048E+00  1.63511242E+00
  3.57297198E+00  4.06493048E+00  1.63511242E+00  8.04869739E+00 -4.06595732E+00
  2.61786439E-01  8.04869739E+00 -4.06595732E+00  2.61786439E-01  8.04868336E+00
  4.06596083E+00  2.61769735E-01  8.04868336E+00  4.06596083E+00  2.61769735E-01
  1.02968321E+01  3.84534013E-06 -4.50633774E-01  1.02968321E+01  3.84534013E-06
 -4.50633774E-01
Constraint Structure                       R   N=          54
 -4.79615866E+00 -2.21862494E-05  1.78545260E+00 -9.97896985E-01 -2.99750528E+00
 -1.76928192E+00 -9.97921775E-01  2.99752990E+00 -1.76924827E+00  5.41445369E-01
 -6.93311933E-06  2.52296899E+00  3.26036444E+00 -2.64572530E-06  1.69664629E+00
 -1.37489475E+00 -2.03730708E-06  3.52720608E-01  4.54748434E+00 -2.28365308E+00
  1.31765897E+00  4.54747625E+00  2.28365030E+00  1.31764892E+00  7.06762720E+00
 -2.28278877E+00  5.44431031E-01  7.06761942E+00  2.28279018E+00  5.44422386E-01
  8.33131880E+00  1.94893817E-06  1.48058186E-01  1.24194343E-01  1.67149766E+00
  3.67361430E+00  1.24198415E-01 -1.67151964E+00  3.67360458E+00  3.57298560E+00
 -4.06493488E+00  1.63512972E+00  3.57297198E+00  4.06493048E+00  1.63511242E+00
  8.04869739E+00 -4.06595732E+00  2.61786439E-01  8.04868336E+00  4.06596083E+00
  2.61769735E-01  1.02968321E+01  3.84534013E-06 -4.50633774E-01
Num ILSW                                   I              100
ILSW                                       I   N=         100
           0           1           0           0           2           0
           0           0           0           0           0          -1
           0           0           0           0           0           0
           0           0           0           0           1           0
           1           0           0           0           0           0
           0           0      100000           0          -1           0
           0           0           0           0           0           0
           0           0           0           1           1           0
           0           0           1           0           0           0
           0           0           4          40           0           0
           0           0           0           0           0           0
           0           0           0           0           0           0
           0           0           0           0           0           0
           0           0           0           0           0           0
           0           0           0           0           0           0
           0           0           0           0           0           0
           0           0           0           0
Num RLSW                                   I               40
RLSW                                       R   N=          40
  1.00000000E+00  1.00000000E+00  1.00000000E+00  1.00000000E+00  1.00000000E+00
  0.00000000E+00  0.00000000E+00  1.00000000E+00  0.00000000E+00  0.00000000E+00
  0.00000000E+00  0.00000000E+00  1.00000000E+00  0.00000000E+00  0.00000000E+00
  0.00000000E+00  0.00000000E+00  1.00000000E+00  0.00000000E+00  0.00000000E+00
  0.00000000E+00  0.00000000E+00  1.00000000E+00  0.00000000E+00  0.00000000E+00
  0.00000000E+00  0.00000000E+00  1.00000000E+00  0.00000000E+00  0.00000000E+00
  0.00000000E+00  0.00000000E+00  0.00000000E+00  0.00000000E+00  0.00000000E+00
  0.00000000E+00  0.00000000E+00  0.00000000E+00  1.00000000E+00  1.00000000E+00
MxBond                                     I                4
NBond                                      I   N=          18
           1           1           1           4           3           4
           3           3           3           3           3           1
           1           1           1           1           1           1
IBond                                      I   N=          72
           6           0           0           0           6           0
           0           0           6           0           0           0
           5           6          12          13           4           7
           8           0           1           2           3           4
           5           9          14           0           5          10
          15           0           7          11          16           0
           8          11          17           0           9          10
          18           0           4           0           0           0
           4           0           0           0           7           0
           0           0           8           0           0           0
           9           0           0           0          10           0
           0           0          11           0           0           0
RBond                                      R   N=          72
  1.00000000E+00  0.00000000E+00  0.00000000E+00  0.00000000E+00  1.00000000E+00
  0.00000000E+00  0.00000000E+00  0.00000000E+00  1.00000000E+00  0.00000000E+00
  0.00000000E+00  0.00000000E+00  1.00000000E+00  1.00000000E+00  1.00000000E+00
  1.00000000E+00  1.00000000E+00  1.50000000E+00  1.50000000E+00  0.00000000E+00
  1.00000000E+00  1.00000000E+00  1.00000000E+00  1.00000000E+00  1.50000000E+00
  1.50000000E+00  1.00000000E+00  0.00000000E+00  1.50000000E+00  1.50000000E+00
  1.00000000E+00  0.00000000E+00  1.50000000E+00  1.50000000E+00  1.00000000E+00
  0.00000000E+00  1.50000000E+00  1.50000000E+00  1.00000000E+00  0.00000000E+00
  1.50000000E+00  1.50000000E+00  1.00000000E+00  0.00000000E+00  1.00000000E+00
  0.00000000E+00  0.00000000E+00  0.00000000E+00  1.00000000E+00  0.00000000E+00
  0.00000000E+00  0.00000000E+00  1.00000000E+00  0.00000000E+00  0.00000000E+00
  0.00000000E+00  1.00000000E+00  0.00000000E+00  0.00000000E+00  0.00000000E+00
  1.00000000E+00  0.00000000E+00  0.00000000E+00  0.00000000E+00  1.00000000E+00
  0.00000000E+00  0.00000000E+00  0.00000000E+00  1.00000000E+00  0.00000000E+00
  0.00000000E+00  0.00000000E+00
Virial Ratio                               R      2.004438749059964E+00
SCF Energy                                 R     -8.016675651319475E+03
MP2 Energy                                 R     -8.018052433382452E+03
Total Energy                               R     -8.018052433382452E+03
Post-SCF wavefunction norm                 R      1.758353968552861E+00
RMS Force                                  R      4.170095323634047E-07