129847661                                                               
Freq      RMP2-FC                                                     6-31G(d)            
Number of atoms                            I               19
Info1-9                                    I   N=           9
          31          29        1002           0           0         100
           6           2           1
Charge                                     I                0
Multiplicity                               I                1
Number of electrons                        I               74
Number of alpha electrons                  I               37
Number of beta electrons                   I               37
Number of basis functions                  I              168
Number of independent functions            I              168
Number of point charges in /Mol/           I                0
Number of translation vectors              I                0
Atomic numbers                             I   N=          19
           8           8           7           6           6           6
           6           6           6           6           1           1
           1           1           1           1           1           1
           1
Nuclear charges                            R   N=          19
  8.00000000E+00  8.00000000E+00  7.00000000E+00  6.00000000E+00  6.00000000E+00
  6.00000000E+00  6.00000000E+00  6.00000000E+00  6.00000000E+00  6.00000000E+00
  1.00000000E+00  1.00000000E+00  1.00000000E+00  1.00000000E+00  1.00000000E+00
  1.00000000E+00  1.00000000E+00  1.00000000E+00  1.00000000E+00
Current cartesian coordinates              R   N=          57
  1.56677200E+00  2.92711727E+00 -1.82539555E-02 -3.71242716E+00 -2.88616917E+00
 -5.15029220E-02 -2.44074185E+00  1.24032783E+00 -3.60476307E-02  4.19138928E+00
 -4.31721981E-01  1.20610002E-02  1.48007450E-01  7.73891147E-01 -1.60216399E-02
  1.63322130E+00 -1.33835121E+00  1.21250174E-03  4.05158045E+00  2.14336882E+00
  1.99494355E-04  6.53787703E+00 -2.00798984E+00  3.20417646E-02 -4.25384787E+00
 -6.25529440E-01 -3.73907976E-02 -6.94253924E+00  3.41935499E-01  7.02472743E-02
  9.69168400E-01 -3.26562133E+00  3.19014914E-03  5.43966015E+00  3.63949819E+00
  3.08935717E-03 -2.95859012E+00  3.08338870E+00 -2.60704165E-02  6.62739881E+00
 -3.23346278E+00 -1.63116219E+00  8.22533206E+00 -8.14711284E-01  3.69659379E-02
  6.60820631E+00 -3.22010430E+00  1.70593020E+00 -7.18065040E+00  2.12424270E+00
 -9.46903988E-01 -7.49714192E+00  6.31764338E-01  2.04112989E+00 -8.17707942E+00
 -1.08849181E+00 -7.49878097E-01
Force Field                                I                0
Int Atom Types                             I   N=          19
           0           0           0           0           0           0
           0           0           0           0           0           0
           0           0           0           0           0           0
           0
MM charges                                 R   N=          19
  0.00000000E+00  0.00000000E+00  0.00000000E+00  0.00000000E+00  0.00000000E+00
  0.00000000E+00  0.00000000E+00  0.00000000E+00  0.00000000E+00  0.00000000E+00
  0.00000000E+00  0.00000000E+00  0.00000000E+00  0.00000000E+00  0.00000000E+00
  0.00000000E+00  0.00000000E+00  0.00000000E+00  0.00000000E+00
Integer atomic weights                     I   N=          19
          16          16          14          12          12          12
          12          12          12          12           1           1
           1           1           1           1           1           1
           1
Real atomic weights                        R   N=          19
  1.59949146E+01  1.59949146E+01  1.40030740E+01  1.20000000E+01  1.20000000E+01
  1.20000000E+01  1.20000000E+01  1.20000000E+01  1.20000000E+01  1.20000000E+01
  1.00782504E+00  1.00782504E+00  1.00782504E+00  1.00782504E+00  1.00782504E+00
  1.00782504E+00  1.00782504E+00  1.00782504E+00  1.00782504E+00
Atom fragment info                         I   N=          19
           0           0           0           0           0           0
           0           0           0           0           0           0
           0           0           0           0           0           0
           0
Atom residue num                           I   N=          19
           0           0           0           0           0           0
           0           0           0           0           0           0
           0           0           0           0           0           0
           0
Nuclear spins                              I   N=          19
           0           0           2           0           0           0
           0           0           0           0           1           1
           1           1           1           1           1           1
           1
Nuclear ZEff                               R   N=          19
 -5.60000000E+00 -5.60000000E+00 -4.55000000E+00 -3.60000000E+00 -3.60000000E+00
 -3.60000000E+00 -3.60000000E+00 -3.60000000E+00 -3.60000000E+00 -3.60000000E+00
 -1.00000000E+00 -1.00000000E+00 -1.00000000E+00 -1.00000000E+00 -1.00000000E+00
 -1.00000000E+00 -1.00000000E+00 -1.00000000E+00 -1.00000000E+00
Nuclear QMom                               R   N=          19
  0.00000000E+00  0.00000000E+00  2.04400000E+00  0.00000000E+00  0.00000000E+00
  0.00000000E+00  0.00000000E+00  0.00000000E+00  0.00000000E+00  0.00000000E+00
  0.00000000E+00  0.00000000E+00  0.00000000E+00  0.00000000E+00  0.00000000E+00
  0.00000000E+00  0.00000000E+00  0.00000000E+00  0.00000000E+00
Nuclear GFac                               R   N=          19
  0.00000000E+00  0.00000000E+00  4.03761000E-01  0.00000000E+00  0.00000000E+00
  0.00000000E+00  0.00000000E+00  0.00000000E+00  0.00000000E+00  0.00000000E+00
  2.79284600E+00  2.79284600E+00  2.79284600E+00  2.79284600E+00  2.79284600E+00
  2.79284600E+00  2.79284600E+00  2.79284600E+00  2.79284600E+00
MicOpt                                     I   N=          19
          -1          -1          -1          -1          -1          -1
          -1          -1          -1          -1          -1          -1
          -1          -1          -1          -1          -1          -1
          -1
Number of contracted shells                I               58
Number of primitive shells                 I              146
Pure/Cartesian d shells                    I                1
Pure/Cartesian f shells                    I                0
Highest angular momentum                   I                2
Largest degree of contraction              I                6
Shell types                                I   N=          58
           0          -1          -1           2           0          -1
          -1           2           0          -1          -1           2
           0          -1          -1           2           0          -1
          -1           2           0          -1          -1           2
           0          -1          -1           2           0          -1
          -1           2           0          -1          -1           2
           0          -1          -1           2           0           0
           0           0           0           0           0           0
           0           0           0           0           0           0
           0           0           0           0
Number of primitives per shell             I   N=          58
           6           3           1           1           6           3
           1           1           6           3           1           1
           6           3           1           1           6           3
           1           1           6           3           1           1
           6           3           1           1           6           3
           1           1           6           3           1           1
           6           3           1           1           3           1
           3           1           3           1           3           1
           3           1           3           1           3           1
           3           1           3           1
Shell to atom map                          I   N=          58
           1           1           1           1           2           2
           2           2           3           3           3           3
           4           4           4           4           5           5
           5           5           6           6           6           6
           7           7           7           7           8           8
           8           8           9           9           9           9
          10          10          10          10          11          11
          12          12          13          13          14          14
          15          15          16          16          17          17
          18          18          19          19
Primitive exponents                        R   N=         146
  5.48467166E+03  8.25234946E+02  1.88046958E+02  5.29645000E+01  1.68975704E+01
  5.79963534E+00  1.55396162E+01  3.59993359E+00  1.01376175E+00  2.70005823E-01
  8.00000000E-01  5.48467166E+03  8.25234946E+02  1.88046958E+02  5.29645000E+01
  1.68975704E+01  5.79963534E+00  1.55396162E+01  3.59993359E+00  1.01376175E+00
  2.70005823E-01  8.00000000E-01  4.17351146E+03  6.27457911E+02  1.42902093E+02
  4.02343293E+01  1.28202129E+01  4.39043701E+00  1.16263619E+01  2.71627981E+00
  7.72218397E-01  2.12031498E-01  8.00000000E-01  3.04752488E+03  4.57369518E+02
  1.03948685E+02  2.92101553E+01  9.28666296E+00  3.16392696E+00  7.86827235E+00
  1.88128854E+00  5.44249258E-01  1.68714478E-01  8.00000000E-01  3.04752488E+03
  4.57369518E+02  1.03948685E+02  2.92101553E+01  9.28666296E+00  3.16392696E+00
  7.86827235E+00  1.88128854E+00  5.44249258E-01  1.68714478E-01  8.00000000E-01
  3.04752488E+03  4.57369518E+02  1.03948685E+02  2.92101553E+01  9.28666296E+00
  3.16392696E+00  7.86827235E+00  1.88128854E+00  5.44249258E-01  1.68714478E-01
  8.00000000E-01  3.04752488E+03  4.57369518E+02  1.03948685E+02  2.92101553E+01
  9.28666296E+00  3.16392696E+00  7.86827235E+00  1.88128854E+00  5.44249258E-01
  1.68714478E-01  8.00000000E-01  3.04752488E+03  4.57369518E+02  1.03948685E+02
  2.92101553E+01  9.28666296E+00  3.16392696E+00  7.86827235E+00  1.88128854E+00
  5.44249258E-01  1.68714478E-01  8.00000000E-01  3.04752488E+03  4.57369518E+02
  1.03948685E+02  2.92101553E+01  9.28666296E+00  3.16392696E+00  7.86827235E+00
  1.88128854E+00  5.44249258E-01  1.68714478E-01  8.00000000E-01  3.04752488E+03
  4.57369518E+02  1.03948685E+02  2.92101553E+01  9.28666296E+00  3.16392696E+00
  7.86827235E+00  1.88128854E+00  5.44249258E-01  1.68714478E-01  8.00000000E-01
  1.87311370E+01  2.82539436E+00  6.40121692E-01  1.61277759E-01  1.87311370E+01
  2.82539436E+00  6.40121692E-01  1.61277759E-01  1.87311370E+01  2.82539436E+00
  6.40121692E-01  1.61277759E-01  1.87311370E+01  2.82539436E+00  6.40121692E-01
  1.61277759E-01  1.87311370E+01  2.82539436E+00  6.40121692E-01  1.61277759E-01
  1.87311370E+01  2.82539436E+00  6.40121692E-01  1.61277759E-01  1.87311370E+01
  2.82539436E+00  6.40121692E-01  1.61277759E-01  1.87311370E+01  2.82539436E+00
  6.40121692E-01  1.61277759E-01  1.87311370E+01  2.82539436E+00  6.40121692E-01
  1.61277759E-01
Contraction coefficients                   R   N=         146
  1.83107443E-03  1.39501722E-02  6.84450781E-02  2.32714336E-01  4.70192898E-01
  3.58520853E-01 -1.10777550E-01 -1.48026263E-01  1.13076702E+00  1.00000000E+00
  1.00000000E+00  1.83107443E-03  1.39501722E-02  6.84450781E-02  2.32714336E-01
  4.70192898E-01  3.58520853E-01 -1.10777550E-01 -1.48026263E-01  1.13076702E+00
  1.00000000E+00  1.00000000E+00  1.83477216E-03  1.39946270E-02  6.85865518E-02
  2.32240873E-01  4.69069948E-01  3.60455199E-01 -1.14961182E-01 -1.69117479E-01
  1.14585195E+00  1.00000000E+00  1.00000000E+00  1.83473713E-03  1.40373228E-02
  6.88426223E-02  2.32184443E-01  4.67941348E-01  3.62311985E-01 -1.19332420E-01
 -1.60854152E-01  1.14345644E+00  1.00000000E+00  1.00000000E+00  1.83473713E-03
  1.40373228E-02  6.88426223E-02  2.32184443E-01  4.67941348E-01  3.62311985E-01
 -1.19332420E-01 -1.60854152E-01  1.14345644E+00  1.00000000E+00  1.00000000E+00
  1.83473713E-03  1.40373228E-02  6.88426223E-02  2.32184443E-01  4.67941348E-01
  3.62311985E-01 -1.19332420E-01 -1.60854152E-01  1.14345644E+00  1.00000000E+00
  1.00000000E+00  1.83473713E-03  1.40373228E-02  6.88426223E-02  2.32184443E-01
  4.67941348E-01  3.62311985E-01 -1.19332420E-01 -1.60854152E-01  1.14345644E+00
  1.00000000E+00  1.00000000E+00  1.83473713E-03  1.40373228E-02  6.88426223E-02
  2.32184443E-01  4.67941348E-01  3.62311985E-01 -1.19332420E-01 -1.60854152E-01
  1.14345644E+00  1.00000000E+00  1.00000000E+00  1.83473713E-03  1.40373228E-02
  6.88426223E-02  2.32184443E-01  4.67941348E-01  3.62311985E-01 -1.19332420E-01
 -1.60854152E-01  1.14345644E+00  1.00000000E+00  1.00000000E+00  1.83473713E-03
  1.40373228E-02  6.88426223E-02  2.32184443E-01  4.67941348E-01  3.62311985E-01
 -1.19332420E-01 -1.60854152E-01  1.14345644E+00  1.00000000E+00  1.00000000E+00
  3.34946043E-02  2.34726953E-01  8.13757326E-01  1.00000000E+00  3.34946043E-02
  2.34726953E-01  8.13757326E-01  1.00000000E+00  3.34946043E-02  2.34726953E-01
  8.13757326E-01  1.00000000E+00  3.34946043E-02  2.34726953E-01  8.13757326E-01
  1.00000000E+00  3.34946043E-02  2.34726953E-01  8.13757326E-01  1.00000000E+00
  3.34946043E-02  2.34726953E-01  8.13757326E-01  1.00000000E+00  3.34946043E-02
  2.34726953E-01  8.13757326E-01  1.00000000E+00  3.34946043E-02  2.34726953E-01
  8.13757326E-01  1.00000000E+00  3.34946043E-02  2.34726953E-01  8.13757326E-01
  1.00000000E+00
P(S=P) Contraction coefficients            R   N=         146
  0.00000000E+00  0.00000000E+00  0.00000000E+00  0.00000000E+00  0.00000000E+00
  0.00000000E+00  7.08742682E-02  3.39752839E-01  7.27158577E-01  1.00000000E+00
  0.00000000E+00  0.00000000E+00  0.00000000E+00  0.00000000E+00  0.00000000E+00
  0.00000000E+00  0.00000000E+00  7.08742682E-02  3.39752839E-01  7.27158577E-01
  1.00000000E+00  0.00000000E+00  0.00000000E+00  0.00000000E+00  0.00000000E+00
  0.00000000E+00  0.00000000E+00  0.00000000E+00  6.75797439E-02  3.23907296E-01
  7.40895140E-01  1.00000000E+00  0.00000000E+00  0.00000000E+00  0.00000000E+00
  0.00000000E+00  0.00000000E+00  0.00000000E+00  0.00000000E+00  6.89990666E-02
  3.16423961E-01  7.44308291E-01  1.00000000E+00  0.00000000E+00  0.00000000E+00
  0.00000000E+00  0.00000000E+00  0.00000000E+00  0.00000000E+00  0.00000000E+00
  6.89990666E-02  3.16423961E-01  7.44308291E-01  1.00000000E+00  0.00000000E+00
  0.00000000E+00  0.00000000E+00  0.00000000E+00  0.00000000E+00  0.00000000E+00
  0.00000000E+00  6.89990666E-02  3.16423961E-01  7.44308291E-01  1.00000000E+00
  0.00000000E+00  0.00000000E+00  0.00000000E+00  0.00000000E+00  0.00000000E+00
  0.00000000E+00  0.00000000E+00  6.89990666E-02  3.16423961E-01  7.44308291E-01
  1.00000000E+00  0.00000000E+00  0.00000000E+00  0.00000000E+00  0.00000000E+00
  0.00000000E+00  0.00000000E+00  0.00000000E+00  6.89990666E-02  3.16423961E-01
  7.44308291E-01  1.00000000E+00  0.00000000E+00  0.00000000E+00  0.00000000E+00
  0.00000000E+00  0.00000000E+00  0.00000000E+00  0.00000000E+00  6.89990666E-02
  3.16423961E-01  7.44308291E-01  1.00000000E+00  0.00000000E+00  0.00000000E+00
  0.00000000E+00  0.00000000E+00  0.00000000E+00  0.00000000E+00  0.00000000E+00
  6.89990666E-02  3.16423961E-01  7.44308291E-01  1.00000000E+00  0.00000000E+00
  0.00000000E+00  0.00000000E+00  0.00000000E+00  0.00000000E+00  0.00000000E+00
  0.00000000E+00  0.00000000E+00  0.00000000E+00  0.00000000E+00  0.00000000E+00
  0.00000000E+00  0.00000000E+00  0.00000000E+00  0.00000000E+00  0.00000000E+00
  0.00000000E+00  0.00000000E+00  0.00000000E+00  0.00000000E+00  0.00000000E+00
  0.00000000E+00  0.00000000E+00  0.00000000E+00  0.00000000E+00  0.00000000E+00
  0.00000000E+00  0.00000000E+00  0.00000000E+00  0.00000000E+00  0.00000000E+00
  0.00000000E+00  0.00000000E+00  0.00000000E+00  0.00000000E+00  0.00000000E+00
  0.00000000E+00
Coordinates of each shell                  R   N=         174
  1.56677200E+00  2.92711727E+00 -1.82539555E-02  1.56677200E+00  2.92711727E+00
 -1.82539555E-02  1.56677200E+00  2.92711727E+00 -1.82539555E-02  1.56677200E+00
  2.92711727E+00 -1.82539555E-02 -3.71242716E+00 -2.88616917E+00 -5.15029220E-02
 -3.71242716E+00 -2.88616917E+00 -5.15029220E-02 -3.71242716E+00 -2.88616917E+00
 -5.15029220E-02 -3.71242716E+00 -2.88616917E+00 -5.15029220E-02 -2.44074185E+00
  1.24032783E+00 -3.60476307E-02 -2.44074185E+00  1.24032783E+00 -3.60476307E-02
 -2.44074185E+00  1.24032783E+00 -3.60476307E-02 -2.44074185E+00  1.24032783E+00
 -3.60476307E-02  4.19138928E+00 -4.31721981E-01  1.20610002E-02  4.19138928E+00
 -4.31721981E-01  1.20610002E-02  4.19138928E+00 -4.31721981E-01  1.20610002E-02
  4.19138928E+00 -4.31721981E-01  1.20610002E-02  1.48007450E-01  7.73891147E-01
 -1.60216399E-02  1.48007450E-01  7.73891147E-01 -1.60216399E-02  1.48007450E-01
  7.73891147E-01 -1.60216399E-02  1.48007450E-01  7.73891147E-01 -1.60216399E-02
  1.63322130E+00 -1.33835121E+00  1.21250174E-03  1.63322130E+00 -1.33835121E+00
  1.21250174E-03  1.63322130E+00 -1.33835121E+00  1.21250174E-03  1.63322130E+00
 -1.33835121E+00  1.21250174E-03  4.05158045E+00  2.14336882E+00  1.99494355E-04
  4.05158045E+00  2.14336882E+00  1.99494355E-04  4.05158045E+00  2.14336882E+00
  1.99494355E-04  4.05158045E+00  2.14336882E+00  1.99494355E-04  6.53787703E+00
 -2.00798984E+00  3.20417646E-02  6.53787703E+00 -2.00798984E+00  3.20417646E-02
  6.53787703E+00 -2.00798984E+00  3.20417646E-02  6.53787703E+00 -2.00798984E+00
  3.20417646E-02 -4.25384787E+00 -6.25529440E-01 -3.73907976E-02 -4.25384787E+00
 -6.25529440E-01 -3.73907976E-02 -4.25384787E+00 -6.25529440E-01 -3.73907976E-02
 -4.25384787E+00 -6.25529440E-01 -3.73907976E-02 -6.94253924E+00  3.41935499E-01
  7.02472743E-02 -6.94253924E+00  3.41935499E-01  7.02472743E-02 -6.94253924E+00
  3.41935499E-01  7.02472743E-02 -6.94253924E+00  3.41935499E-01  7.02472743E-02
  9.69168400E-01 -3.26562133E+00  3.19014914E-03  9.69168400E-01 -3.26562133E+00
  3.19014914E-03  5.43966015E+00  3.63949819E+00  3.08935717E-03  5.43966015E+00
  3.63949819E+00  3.08935717E-03 -2.95859012E+00  3.08338870E+00 -2.60704165E-02
 -2.95859012E+00  3.08338870E+00 -2.60704165E-02  6.62739881E+00 -3.23346278E+00
 -1.63116219E+00  6.62739881E+00 -3.23346278E+00 -1.63116219E+00  8.22533206E+00
 -8.14711284E-01  3.69659379E-02  8.22533206E+00 -8.14711284E-01  3.69659379E-02
  6.60820631E+00 -3.22010430E+00  1.70593020E+00  6.60820631E+00 -3.22010430E+00
  1.70593020E+00 -7.18065040E+00  2.12424270E+00 -9.46903988E-01 -7.18065040E+00
  2.12424270E+00 -9.46903988E-01 -7.49714192E+00  6.31764338E-01  2.04112989E+00
 -7.49714192E+00  6.31764338E-01  2.04112989E+00 -8.17707942E+00 -1.08849181E+00
 -7.49878097E-01 -8.17707942E+00 -1.08849181E+00 -7.49878097E-01
Constraint Structure                       R   N=          57
  1.56677200E+00  2.92711727E+00 -1.82539555E-02 -3.71242716E+00 -2.88616917E+00
 -5.15029220E-02 -2.44074185E+00  1.24032783E+00 -3.60476307E-02  4.19138928E+00
 -4.31721981E-01  1.20610002E-02  1.48007450E-01  7.73891147E-01 -1.60216399E-02
  1.63322130E+00 -1.33835121E+00  1.21250174E-03  4.05158045E+00  2.14336882E+00
  1.99494355E-04  6.53787703E+00 -2.00798984E+00  3.20417646E-02 -4.25384787E+00
 -6.25529440E-01 -3.73907976E-02 -6.94253924E+00  3.41935499E-01  7.02472743E-02
  9.69168400E-01 -3.26562133E+00  3.19014914E-03  5.43966015E+00  3.63949819E+00
  3.08935717E-03 -2.95859012E+00  3.08338870E+00 -2.60704165E-02  6.62739881E+00
 -3.23346278E+00 -1.63116219E+00  8.22533206E+00 -8.14711284E-01  3.69659379E-02
  6.60820631E+00 -3.22010430E+00  1.70593020E+00 -7.18065040E+00  2.12424270E+00
 -9.46903988E-01 -7.49714192E+00  6.31764338E-01  2.04112989E+00 -8.17707942E+00
 -1.08849181E+00 -7.49878097E-01
Num ILSW                                   I              100
ILSW                                       I   N=         100
           0           1           0           0           2           0
           0           0           0           0           0          -1
           0           0           0           0           0           0
           0           0           0           0           1           0
           1           0           0           0           0           0
           0           0      100000           0          -1           0
           0           0           0           0           0           0
           0           0           0           1           1           0
           0           0           1           0           0           0
           0           0           4          40           0           0
           0           0           0           0           0           0
           0           0           0           0           0           0
           0           0           0           0           0           0
           0           0           0           0           0           0
           0           0           0           0           0           0
           0           0           0           0           0           0
           0           0           0           0
Num RLSW                                   I               40
RLSW                                       R   N=          40
  1.00000000E+00  1.00000000E+00  1.00000000E+00  1.00000000E+00  1.00000000E+00
  0.00000000E+00  0.00000000E+00  1.00000000E+00  0.00000000E+00  0.00000000E+00
  0.00000000E+00  0.00000000E+00  1.00000000E+00  0.00000000E+00  0.00000000E+00
  0.00000000E+00  0.00000000E+00  1.00000000E+00  0.00000000E+00  0.00000000E+00
  0.00000000E+00  0.00000000E+00  1.00000000E+00  0.00000000E+00  0.00000000E+00
  0.00000000E+00  0.00000000E+00  1.00000000E+00  0.00000000E+00  0.00000000E+00
  0.00000000E+00  0.00000000E+00  0.00000000E+00  0.00000000E+00  0.00000000E+00
  0.00000000E+00  0.00000000E+00  0.00000000E+00  1.00000000E+00  1.00000000E+00
MxBond                                     I                4
NBond                                      I   N=          19
           2           1           3           3           3           3
           3           4           3           4           1           1
           1           1           1           1           1           1
           1
IBond                                      I   N=          76
           5           7           0           0           9           0
           0           0           5           9          13           0
           6           7           8           0           1           3
           6           0           4           5          11           0
           1           4          12           0           4          14
          15          16           2           3          10           0
           9          17          18          19           6           0
           0           0           7           0           0           0
           3           0           0           0           8           0
           0           0           8           0           0           0
           8           0           0           0          10           0
           0           0          10           0           0           0
          10           0           0           0
RBond                                      R   N=          76
  1.50000000E+00  1.50000000E+00  0.00000000E+00  0.00000000E+00  2.00000000E+00
  0.00000000E+00  0.00000000E+00  0.00000000E+00  1.50000000E+00  1.00000000E+00
  1.00000000E+00  0.00000000E+00  1.50000000E+00  1.50000000E+00  1.00000000E+00
  0.00000000E+00  1.50000000E+00  1.50000000E+00  1.50000000E+00  0.00000000E+00
  1.50000000E+00  1.50000000E+00  1.00000000E+00  0.00000000E+00  1.50000000E+00
  1.50000000E+00  1.00000000E+00  0.00000000E+00  1.00000000E+00  1.00000000E+00
  1.00000000E+00  1.00000000E+00  2.00000000E+00  1.00000000E+00  1.00000000E+00
  0.00000000E+00  1.00000000E+00  1.00000000E+00  1.00000000E+00  1.00000000E+00
  1.00000000E+00  0.00000000E+00  0.00000000E+00  0.00000000E+00  1.00000000E+00
  0.00000000E+00  0.00000000E+00  0.00000000E+00  1.00000000E+00  0.00000000E+00
  0.00000000E+00  0.00000000E+00  1.00000000E+00  0.00000000E+00  0.00000000E+00
  0.00000000E+00  1.00000000E+00  0.00000000E+00  0.00000000E+00  0.00000000E+00
  1.00000000E+00  0.00000000E+00  0.00000000E+00  0.00000000E+00  1.00000000E+00
  0.00000000E+00  0.00000000E+00  0.00000000E+00  1.00000000E+00  0.00000000E+00
  0.00000000E+00  0.00000000E+00  1.00000000E+00  0.00000000E+00  0.00000000E+00
  0.00000000E+00
Virial Ratio                               R      2.002664934344016E+00
SCF Energy                                 R     -4.744807876619519E+02
MP2 Energy                                 R     -4.758920056777664E+02
Total Energy                               R     -4.758920056777664E+02
Post-SCF wavefunction norm                 R      1.709308775821654E+00
RMS Force                                  R      2.419003356718027E-07
RMS Density                                R      1.308896400518271E-09
External E-field                           R   N=          35
  0.00000000E+00  0.00000000E+00  0.00000000E+00  0.00000000E+00  0.00000000E+00
  0.00000000E+00  0.00000000E+00  0.00000000E+00  0.00000000E+00  0.00000000E+00
  0.00000000E+00  0.00000000E+00  0.00000000E+00  0.00000000E+00  0.00000000E+00
  0.00000000E+00  0.00000000E+00  0.00000000E+00  0.00000000E+00  0.00000000E+00
  0.00000000E+00  0.00000000E+00  0.00000000E+00  0.00000000E+00  0.00000000E+00
  0.00000000E+00  0.00000000E+00  0.00000000E+00  0.00000000E+00  0.00000000E+00
  0.00000000E+00  0.00000000E+00  0.00000000E+00  0.00000000E+00  0.00000000E+00
IOpCl                                      I                0
IROHF                                      I                0
Alpha Orbital Energies                     R   N=         168
 -2.06265839E+01 -2.05388829E+01 -1.56195012E+01 -1.13713246E+01 -1.13335426E+01
 -1.12723279E+01 -1.12492193E+01 -1.12335880E+01 -1.12255505E+01 -1.12121668E+01
 -1.45665977E+00 -1.38477266E+00 -1.25031540E+00 -1.09218586E+00 -1.03486970E+00
 -9.84203655E-01 -9.41110320E-01 -8.36530500E-01 -7.87701659E-01 -7.64160592E-01
 -7.07098366E-01 -6.78856503E-01 -6.50480716E-01 -6.44009183E-01 -6.17031222E-01
 -5.94606158E-01 -5.78924012E-01 -5.69534138E-01 -5.66545033E-01 -5.59250353E-01
 -5.37752601E-01 -5.34827235E-01 -5.06406061E-01 -4.46925318E-01 -4.31367229E-01
 -3.74679901E-01 -2.82664608E-01  1.53271269E-01  2.05920808E-01  2.12267990E-01
  2.56261605E-01  2.57686544E-01  2.70851965E-01  2.86960946E-01  2.94790284E-01
  3.10068222E-01  3.25779967E-01  3.29627249E-01  3.55293351E-01  3.64943028E-01
  4.00164735E-01  4.08810060E-01  4.28490601E-01  4.63944809E-01  4.92842420E-01
  5.39424164E-01  5.81674967E-01  5.96862202E-01  6.88187215E-01  7.13304502E-01
  7.30240700E-01  7.39895186E-01  7.45894566E-01  7.60862486E-01  7.73292387E-01
  7.81841647E-01  8.08600080E-01  8.37593030E-01  8.46160105E-01  8.64128812E-01
  8.72229922E-01  8.82228737E-01  9.20976902E-01  9.23668516E-01  9.36082439E-01
  9.70759381E-01  9.86145112E-01  1.03673956E+00  1.06222702E+00  1.08097926E+00
  1.10167382E+00  1.10738690E+00  1.12103944E+00  1.13429181E+00  1.14966959E+00
  1.15894672E+00  1.16547585E+00  1.18713532E+00  1.19043274E+00  1.21586293E+00
  1.22568832E+00  1.24342239E+00  1.27534831E+00  1.28373702E+00  1.31581241E+00
  1.33960672E+00  1.36193082E+00  1.38417127E+00  1.47323047E+00  1.52645102E+00
  1.54206375E+00  1.56558388E+00  1.59985802E+00  1.62366192E+00  1.64789283E+00
  1.65577260E+00  1.69361574E+00  1.70117296E+00  1.73949010E+00  1.74422384E+00
  1.78920659E+00  1.83625031E+00  1.84738473E+00  1.92330259E+00  1.94375426E+00
  2.02881744E+00  2.09065706E+00  2.10027573E+00  2.10241554E+00  2.12623997E+00
  2.15300574E+00  2.18292171E+00  2.19784335E+00  2.22202095E+00  2.23069332E+00
  2.30141894E+00  2.32302210E+00  2.37724429E+00  2.41179239E+00  2.43708920E+00
  2.46253475E+00  2.48127337E+00  2.49502561E+00  2.51606705E+00  2.58782418E+00
  2.59566158E+00  2.61611350E+00  2.63665645E+00  2.69720934E+00  2.71366377E+00
  2.73535655E+00  2.74546471E+00  2.79263258E+00  2.81721042E+00  2.84060454E+00
  2.91697408E+00  2.92553814E+00  3.02472182E+00  3.04346454E+00  3.06745940E+00
  3.11923369E+00  3.21451539E+00  3.23991217E+00  3.32789131E+00  3.38100106E+00
  3.41670840E+00  3.52546174E+00  3.73711798E+00  4.42538419E+00  4.45006670E+00
  4.52961839E+00  4.58311813E+00  4.61859829E+00  4.66177714E+00  4.73334916E+00
  4.84258945E+00  4.92408068E+00  5.09421339E+00
Alpha MO coefficients                      R   N=       28224
  9.94660166E-01  2.12102891E-02  3.60709150E-04 -1.22728125E-03  9.30895569E-06
  3.82749612E-03 -2.68733226E-04  7.92759951E-04 -5.83345352E-06 -4.10581624E-03
 -4.05788608E-03 -3.90786906E-03 -2.07605853E-05 -1.10346045E-06  9.61921583E-07
  3.01341476E-06  3.17256958E-06  1.42985966E-06  9.04135957E-07 -3.04051653E-07
 -9.45337930E-07  1.09356971E-05 -3.65144219E-06  1.78061578E-06 -2.82663495E-06
 -1.00908937E-06  6.78962897E-06  4.79613775E-06  1.98942347E-08  2.19876343E-07
 -2.24539223E-05 -4.80787011E-05 -1.67565107E-05 -7.01869778E-06 -5.90572616E-07
  7.72049334E-04  1.13697231E-04 -9.06291279E-06  4.11641942E-06 -1.11444323E-04
 -5.28643825E-05 -5.25728273E-05 -3.92860644E-05 -2.76075710E-07 -4.77898206E-07
  4.48168104E-06  3.60909985E-05  3.04934445E-05 -5.07764595E-05  4.27596450E-07
 -4.36138515E-04 -2.30443301E-04 -4.33662959E-04  4.11483832E-07  4.23142006E-06
 -6.39941869E-05 -9.03851335E-06  2.85748647E-05 -3.52659585E-08  4.26678961E-07