198_Hexa-135-triene Gaussian SP Calculation on node58.bme.utexas.edu    
Freq      RMP2-FC                                                     6-31G(d)            
Number of atoms                            I               14
Info1-9                                    I   N=           9
          25          24        1002           0           0         100
           6           2           1
Charge                                     I                0
Multiplicity                               I                1
Number of electrons                        I               44
Number of alpha electrons                  I               22
Number of beta electrons                   I               22
Number of basis functions                  I              106
Number of independent functions            I              106
Number of point charges in /Mol/           I                0
Number of translation vectors              I                0
Atomic numbers                             I   N=          14
           6           6           6           6           6           6
           1           1           1           1           1           1
           1           1
Nuclear charges                            R   N=          14
  6.00000000E+00  6.00000000E+00  6.00000000E+00  6.00000000E+00  6.00000000E+00
  6.00000000E+00  1.00000000E+00  1.00000000E+00  1.00000000E+00  1.00000000E+00
  1.00000000E+00  1.00000000E+00  1.00000000E+00  1.00000000E+00
Current cartesian coordinates              R   N=          42
 -1.14762857E+00  5.64575172E-01 -1.80245312E-05  1.14762843E+00 -5.64574030E-01
  4.01998540E-06 -3.52426928E+00 -8.03803043E-01  2.68220160E-06  3.52426977E+00
  8.03803074E-01 -1.40461941E-05 -5.80550609E+00  3.21290757E-01 -1.45936142E-05
  5.80550594E+00 -3.21291803E-01  3.59568066E-05 -1.25213886E+00  2.62470651E+00
 -5.43668363E-05  1.25213818E+00 -2.62470549E+00  3.82496833E-05 -3.41313041E+00
 -2.86106013E+00  3.44648107E-05  3.41313169E+00  2.86106025E+00 -6.75352408E-05
 -7.54297521E+00 -7.66194615E-01  2.45557652E-06 -5.99038125E+00  2.36644199E+00
 -4.72772618E-05  7.54297491E+00  7.66193771E-01  2.60792891E-05  5.99037975E+00
 -2.36644305E+00  9.19620542E-05
Force Field                                I                0
Int Atom Types                             I   N=          14
           0           0           0           0           0           0
           0           0           0           0           0           0
           0           0
MM charges                                 R   N=          14
  0.00000000E+00  0.00000000E+00  0.00000000E+00  0.00000000E+00  0.00000000E+00
  0.00000000E+00  0.00000000E+00  0.00000000E+00  0.00000000E+00  0.00000000E+00
  0.00000000E+00  0.00000000E+00  0.00000000E+00  0.00000000E+00
Integer atomic weights                     I   N=          14
          12          12          12          12          12          12
           1           1           1           1           1           1
           1           1
Real atomic weights                        R   N=          14
  1.20000000E+01  1.20000000E+01  1.20000000E+01  1.20000000E+01  1.20000000E+01
  1.20000000E+01  1.00782504E+00  1.00782504E+00  1.00782504E+00  1.00782504E+00
  1.00782504E+00  1.00782504E+00  1.00782504E+00  1.00782504E+00
Atom fragment info                         I   N=          14
           0           0           0           0           0           0
           0           0           0           0           0           0
           0           0
Atom residue num                           I   N=          14
           0           0           0           0           0           0
           0           0           0           0           0           0
           0           0
Nuclear spins                              I   N=          14
           0           0           0           0           0           0
           1           1           1           1           1           1
           1           1
Nuclear ZEff                               R   N=          14
 -3.60000000E+00 -3.60000000E+00 -3.60000000E+00 -3.60000000E+00 -3.60000000E+00
 -3.60000000E+00 -1.00000000E+00 -1.00000000E+00 -1.00000000E+00 -1.00000000E+00
 -1.00000000E+00 -1.00000000E+00 -1.00000000E+00 -1.00000000E+00
Nuclear QMom                               R   N=          14
  0.00000000E+00  0.00000000E+00  0.00000000E+00  0.00000000E+00  0.00000000E+00
  0.00000000E+00  0.00000000E+00  0.00000000E+00  0.00000000E+00  0.00000000E+00
  0.00000000E+00  0.00000000E+00  0.00000000E+00  0.00000000E+00
Nuclear GFac                               R   N=          14
  0.00000000E+00  0.00000000E+00  0.00000000E+00  0.00000000E+00  0.00000000E+00
  0.00000000E+00  2.79284600E+00  2.79284600E+00  2.79284600E+00  2.79284600E+00
  2.79284600E+00  2.79284600E+00  2.79284600E+00  2.79284600E+00
MicOpt                                     I   N=          14
          -1          -1          -1          -1          -1          -1
          -1          -1          -1          -1          -1          -1
          -1          -1
Number of contracted shells                I               40
Number of primitive shells                 I               98
Pure/Cartesian d shells                    I                1
Pure/Cartesian f shells                    I                0
Highest angular momentum                   I                2
Largest degree of contraction              I                6
Shell types                                I   N=          40
           0          -1          -1           2           0          -1
          -1           2           0          -1          -1           2
           0          -1          -1           2           0          -1
          -1           2           0          -1          -1           2
           0           0           0           0           0           0
           0           0           0           0           0           0
           0           0           0           0
Number of primitives per shell             I   N=          40
           6           3           1           1           6           3
           1           1           6           3           1           1
           6           3           1           1           6           3
           1           1           6           3           1           1
           3           1           3           1           3           1
           3           1           3           1           3           1
           3           1           3           1
Shell to atom map                          I   N=          40
           1           1           1           1           2           2
           2           2           3           3           3           3
           4           4           4           4           5           5
           5           5           6           6           6           6
           7           7           8           8           9           9
          10          10          11          11          12          12
          13          13          14          14
Primitive exponents                        R   N=          98
  3.04752488E+03  4.57369518E+02  1.03948685E+02  2.92101553E+01  9.28666296E+00
  3.16392696E+00  7.86827235E+00  1.88128854E+00  5.44249258E-01  1.68714478E-01
  8.00000000E-01  3.04752488E+03  4.57369518E+02  1.03948685E+02  2.92101553E+01
  9.28666296E+00  3.16392696E+00  7.86827235E+00  1.88128854E+00  5.44249258E-01
  1.68714478E-01  8.00000000E-01  3.04752488E+03  4.57369518E+02  1.03948685E+02
  2.92101553E+01  9.28666296E+00  3.16392696E+00  7.86827235E+00  1.88128854E+00
  5.44249258E-01  1.68714478E-01  8.00000000E-01  3.04752488E+03  4.57369518E+02
  1.03948685E+02  2.92101553E+01  9.28666296E+00  3.16392696E+00  7.86827235E+00
  1.88128854E+00  5.44249258E-01  1.68714478E-01  8.00000000E-01  3.04752488E+03
  4.57369518E+02  1.03948685E+02  2.92101553E+01  9.28666296E+00  3.16392696E+00
  7.86827235E+00  1.88128854E+00  5.44249258E-01  1.68714478E-01  8.00000000E-01
  3.04752488E+03  4.57369518E+02  1.03948685E+02  2.92101553E+01  9.28666296E+00
  3.16392696E+00  7.86827235E+00  1.88128854E+00  5.44249258E-01  1.68714478E-01
  8.00000000E-01  1.87311370E+01  2.82539436E+00  6.40121692E-01  1.61277759E-01
  1.87311370E+01  2.82539436E+00  6.40121692E-01  1.61277759E-01  1.87311370E+01
  2.82539436E+00  6.40121692E-01  1.61277759E-01  1.87311370E+01  2.82539436E+00
  6.40121692E-01  1.61277759E-01  1.87311370E+01  2.82539436E+00  6.40121692E-01
  1.61277759E-01  1.87311370E+01  2.82539436E+00  6.40121692E-01  1.61277759E-01
  1.87311370E+01  2.82539436E+00  6.40121692E-01  1.61277759E-01  1.87311370E+01
  2.82539436E+00  6.40121692E-01  1.61277759E-01
Contraction coefficients                   R   N=          98
  1.83473713E-03  1.40373228E-02  6.88426223E-02  2.32184443E-01  4.67941348E-01
  3.62311985E-01 -1.19332420E-01 -1.60854152E-01  1.14345644E+00  1.00000000E+00
  1.00000000E+00  1.83473713E-03  1.40373228E-02  6.88426223E-02  2.32184443E-01
  4.67941348E-01  3.62311985E-01 -1.19332420E-01 -1.60854152E-01  1.14345644E+00
  1.00000000E+00  1.00000000E+00  1.83473713E-03  1.40373228E-02  6.88426223E-02
  2.32184443E-01  4.67941348E-01  3.62311985E-01 -1.19332420E-01 -1.60854152E-01
  1.14345644E+00  1.00000000E+00  1.00000000E+00  1.83473713E-03  1.40373228E-02
  6.88426223E-02  2.32184443E-01  4.67941348E-01  3.62311985E-01 -1.19332420E-01
 -1.60854152E-01  1.14345644E+00  1.00000000E+00  1.00000000E+00  1.83473713E-03
  1.40373228E-02  6.88426223E-02  2.32184443E-01  4.67941348E-01  3.62311985E-01
 -1.19332420E-01 -1.60854152E-01  1.14345644E+00  1.00000000E+00  1.00000000E+00
  1.83473713E-03  1.40373228E-02  6.88426223E-02  2.32184443E-01  4.67941348E-01
  3.62311985E-01 -1.19332420E-01 -1.60854152E-01  1.14345644E+00  1.00000000E+00
  1.00000000E+00  3.34946043E-02  2.34726953E-01  8.13757326E-01  1.00000000E+00
  3.34946043E-02  2.34726953E-01  8.13757326E-01  1.00000000E+00  3.34946043E-02
  2.34726953E-01  8.13757326E-01  1.00000000E+00  3.34946043E-02  2.34726953E-01
  8.13757326E-01  1.00000000E+00  3.34946043E-02  2.34726953E-01  8.13757326E-01
  1.00000000E+00  3.34946043E-02  2.34726953E-01  8.13757326E-01  1.00000000E+00
  3.34946043E-02  2.34726953E-01  8.13757326E-01  1.00000000E+00  3.34946043E-02
  2.34726953E-01  8.13757326E-01  1.00000000E+00
P(S=P) Contraction coefficients            R   N=          98
  0.00000000E+00  0.00000000E+00  0.00000000E+00  0.00000000E+00  0.00000000E+00
  0.00000000E+00  6.89990666E-02  3.16423961E-01  7.44308291E-01  1.00000000E+00
  0.00000000E+00  0.00000000E+00  0.00000000E+00  0.00000000E+00  0.00000000E+00
  0.00000000E+00  0.00000000E+00  6.89990666E-02  3.16423961E-01  7.44308291E-01
  1.00000000E+00  0.00000000E+00  0.00000000E+00  0.00000000E+00  0.00000000E+00
  0.00000000E+00  0.00000000E+00  0.00000000E+00  6.89990666E-02  3.16423961E-01
  7.44308291E-01  1.00000000E+00  0.00000000E+00  0.00000000E+00  0.00000000E+00
  0.00000000E+00  0.00000000E+00  0.00000000E+00  0.00000000E+00  6.89990666E-02
  3.16423961E-01  7.44308291E-01  1.00000000E+00  0.00000000E+00  0.00000000E+00
  0.00000000E+00  0.00000000E+00  0.00000000E+00  0.00000000E+00  0.00000000E+00
  6.89990666E-02  3.16423961E-01  7.44308291E-01  1.00000000E+00  0.00000000E+00
  0.00000000E+00  0.00000000E+00  0.00000000E+00  0.00000000E+00  0.00000000E+00
  0.00000000E+00  6.89990666E-02  3.16423961E-01  7.44308291E-01  1.00000000E+00
  0.00000000E+00  0.00000000E+00  0.00000000E+00  0.00000000E+00  0.00000000E+00
  0.00000000E+00  0.00000000E+00  0.00000000E+00  0.00000000E+00  0.00000000E+00
  0.00000000E+00  0.00000000E+00  0.00000000E+00  0.00000000E+00  0.00000000E+00
  0.00000000E+00  0.00000000E+00  0.00000000E+00  0.00000000E+00  0.00000000E+00
  0.00000000E+00  0.00000000E+00  0.00000000E+00  0.00000000E+00  0.00000000E+00
  0.00000000E+00  0.00000000E+00  0.00000000E+00  0.00000000E+00  0.00000000E+00
  0.00000000E+00  0.00000000E+00  0.00000000E+00
Coordinates of each shell                  R   N=         120
 -1.14762857E+00  5.64575172E-01 -1.80245312E-05 -1.14762857E+00  5.64575172E-01
 -1.80245312E-05 -1.14762857E+00  5.64575172E-01 -1.80245312E-05 -1.14762857E+00
  5.64575172E-01 -1.80245312E-05  1.14762843E+00 -5.64574030E-01  4.01998540E-06
  1.14762843E+00 -5.64574030E-01  4.01998540E-06  1.14762843E+00 -5.64574030E-01
  4.01998540E-06  1.14762843E+00 -5.64574030E-01  4.01998540E-06 -3.52426928E+00
 -8.03803043E-01  2.68220160E-06 -3.52426928E+00 -8.03803043E-01  2.68220160E-06
 -3.52426928E+00 -8.03803043E-01  2.68220160E-06 -3.52426928E+00 -8.03803043E-01
  2.68220160E-06  3.52426977E+00  8.03803074E-01 -1.40461941E-05  3.52426977E+00
  8.03803074E-01 -1.40461941E-05  3.52426977E+00  8.03803074E-01 -1.40461941E-05
  3.52426977E+00  8.03803074E-01 -1.40461941E-05 -5.80550609E+00  3.21290757E-01
 -1.45936142E-05 -5.80550609E+00  3.21290757E-01 -1.45936142E-05 -5.80550609E+00
  3.21290757E-01 -1.45936142E-05 -5.80550609E+00  3.21290757E-01 -1.45936142E-05
  5.80550594E+00 -3.21291803E-01  3.59568066E-05  5.80550594E+00 -3.21291803E-01
  3.59568066E-05  5.80550594E+00 -3.21291803E-01  3.59568066E-05  5.80550594E+00
 -3.21291803E-01  3.59568066E-05 -1.25213886E+00  2.62470651E+00 -5.43668363E-05
 -1.25213886E+00  2.62470651E+00 -5.43668363E-05  1.25213818E+00 -2.62470549E+00
  3.82496833E-05  1.25213818E+00 -2.62470549E+00  3.82496833E-05 -3.41313041E+00
 -2.86106013E+00  3.44648107E-05 -3.41313041E+00 -2.86106013E+00  3.44648107E-05
  3.41313169E+00  2.86106025E+00 -6.75352408E-05  3.41313169E+00  2.86106025E+00
 -6.75352408E-05 -7.54297521E+00 -7.66194615E-01  2.45557652E-06 -7.54297521E+00
 -7.66194615E-01  2.45557652E-06 -5.99038125E+00  2.36644199E+00 -4.72772618E-05
 -5.99038125E+00  2.36644199E+00 -4.72772618E-05  7.54297491E+00  7.66193771E-01
  2.60792891E-05  7.54297491E+00  7.66193771E-01  2.60792891E-05  5.99037975E+00
 -2.36644305E+00  9.19620542E-05  5.99037975E+00 -2.36644305E+00  9.19620542E-05
Constraint Structure                       R   N=          42
 -1.14762857E+00  5.64575172E-01 -1.80245312E-05  1.14762843E+00 -5.64574030E-01
  4.01998540E-06 -3.52426928E+00 -8.03803043E-01  2.68220160E-06  3.52426977E+00
  8.03803074E-01 -1.40461941E-05 -5.80550609E+00  3.21290757E-01 -1.45936142E-05
  5.80550594E+00 -3.21291803E-01  3.59568066E-05 -1.25213886E+00  2.62470651E+00
 -5.43668363E-05  1.25213818E+00 -2.62470549E+00  3.82496833E-05 -3.41313041E+00
 -2.86106013E+00  3.44648107E-05  3.41313169E+00  2.86106025E+00 -6.75352408E-05
 -7.54297521E+00 -7.66194615E-01  2.45557652E-06 -5.99038125E+00  2.36644199E+00
 -4.72772618E-05  7.54297491E+00  7.66193771E-01  2.60792891E-05  5.99037975E+00
 -2.36644305E+00  9.19620542E-05
Num ILSW                                   I              100
ILSW                                       I   N=         100
           0           1           0           0           2           0
           0           0           0           0           0          -1
           0           0           0           0           0           0
           0           0           0           0           1           0
           1           0           0           0           0           0
           0           0      100000           0          -1           0
           0           0           0           0           0           0
           0           0           0           1           1           0
           0           0           1           0           0           0
           0           0           4          40           0           0
           0           0           0           0           0           0
           0           0           0           0           0           0
           0           0           0           0           0           0
           0           0           0           0           0           0
           0           0           0           0           0           0
           0           0           0           0           0           0
           0           0           0           0
Num RLSW                                   I               40
RLSW                                       R   N=          40
  1.00000000E+00  1.00000000E+00  1.00000000E+00  1.00000000E+00  1.00000000E+00
  0.00000000E+00  0.00000000E+00  1.00000000E+00  0.00000000E+00  0.00000000E+00
  0.00000000E+00  0.00000000E+00  1.00000000E+00  0.00000000E+00  0.00000000E+00
  0.00000000E+00  0.00000000E+00  1.00000000E+00  0.00000000E+00  0.00000000E+00
  0.00000000E+00  0.00000000E+00  1.00000000E+00  0.00000000E+00  0.00000000E+00
  0.00000000E+00  0.00000000E+00  1.00000000E+00  0.00000000E+00  0.00000000E+00
  0.00000000E+00  0.00000000E+00  0.00000000E+00  0.00000000E+00  0.00000000E+00
  0.00000000E+00  0.00000000E+00  0.00000000E+00  1.00000000E+00  1.00000000E+00
MxBond                                     I                3
NBond                                      I   N=          14
           3           3           3           3           3           3
           1           1           1           1           1           1
           1           1
IBond                                      I   N=          42
           2           3           7           1           4           8
           1           5           9           2           6          10
           3          11          12           4          13          14
           1           0           0           2           0           0
           3           0           0           4           0           0
           5           0           0           5           0           0
           6           0           0           6           0           0
RBond                                      R   N=          42
  2.00000000E+00  1.00000000E+00  1.00000000E+00  2.00000000E+00  1.00000000E+00
  1.00000000E+00  1.00000000E+00  2.00000000E+00  1.00000000E+00  1.00000000E+00
  2.00000000E+00  1.00000000E+00  2.00000000E+00  1.00000000E+00  1.00000000E+00
  2.00000000E+00  1.00000000E+00  1.00000000E+00  1.00000000E+00  0.00000000E+00
  0.00000000E+00  1.00000000E+00  0.00000000E+00  0.00000000E+00  1.00000000E+00
  0.00000000E+00  0.00000000E+00  1.00000000E+00  0.00000000E+00  0.00000000E+00
  1.00000000E+00  0.00000000E+00  0.00000000E+00  1.00000000E+00  0.00000000E+00
  0.00000000E+00  1.00000000E+00  0.00000000E+00  0.00000000E+00  1.00000000E+00
  0.00000000E+00  0.00000000E+00
Virial Ratio                               R      2.002056834852903E+00
SCF Energy                                 R     -2.318055184171911E+02
MP2 Energy                                 R     -2.325625970374750E+02
Total Energy                               R     -2.325625970374750E+02
Post-SCF wavefunction norm                 R      1.599176077721137E+00
RMS Force                                  R      4.193201741547101E-06
RMS Density                                R      7.467380072934211E-10
External E-field                           R   N=          35
  0.00000000E+00  0.00000000E+00  0.00000000E+00  0.00000000E+00  0.00000000E+00
  0.00000000E+00  0.00000000E+00  0.00000000E+00  0.00000000E+00  0.00000000E+00
  0.00000000E+00  0.00000000E+00  0.00000000E+00  0.00000000E+00  0.00000000E+00
  0.00000000E+00  0.00000000E+00  0.00000000E+00  0.00000000E+00  0.00000000E+00
  0.00000000E+00  0.00000000E+00  0.00000000E+00  0.00000000E+00  0.00000000E+00
  0.00000000E+00  0.00000000E+00  0.00000000E+00  0.00000000E+00  0.00000000E+00
  0.00000000E+00  0.00000000E+00  0.00000000E+00  0.00000000E+00  0.00000000E+00
IOpCl                                      I                0
IROHF                                      I                0
Alpha Orbital Energies                     R   N=         106
 -1.12398221E+01 -1.12395310E+01 -1.12390008E+01 -1.12377939E+01 -1.12292124E+01
 -1.12292120E+01 -1.10371609E+00 -1.05129768E+00 -9.76240536E-01 -8.42821932E-01
 -7.57413078E-01 -7.55560482E-01 -6.58606671E-01 -6.28005744E-01 -5.94756036E-01
 -5.62970779E-01 -5.35625262E-01 -5.11677529E-01 -4.90623326E-01 -4.60605209E-01
 -3.89624393E-01 -2.85934180E-01  9.65738220E-02  2.13595000E-01  2.43073702E-01
  2.67647666E-01  2.74132685E-01  2.75856047E-01  2.92245343E-01  3.10539929E-01
  3.40105055E-01  3.45397074E-01  3.61348069E-01  4.77145687E-01  4.98540922E-01
  5.32429062E-01  5.37809890E-01  6.01406909E-01  6.65721597E-01  7.09140008E-01
  7.50002955E-01  7.84128749E-01  7.86192189E-01  8.21936275E-01  8.24649825E-01
  8.41352511E-01  8.67204153E-01  8.81074457E-01  9.09516433E-01  9.39530443E-01
  9.40740630E-01  9.55359593E-01  1.09681768E+00  1.11589054E+00  1.12543703E+00
  1.13674714E+00  1.15754359E+00  1.17644477E+00  1.18929628E+00  1.21569861E+00
  1.22195852E+00  1.24509795E+00  1.28857518E+00  1.29744032E+00  1.33913031E+00
  1.38854442E+00  1.52517140E+00  1.52825026E+00  1.59124096E+00  1.59779434E+00
  1.61961367E+00  1.70964350E+00  1.70973425E+00  1.78410855E+00  1.88699856E+00
  1.99027668E+00  2.04885206E+00  2.11399971E+00  2.14115793E+00  2.21388337E+00
  2.28710576E+00  2.29283408E+00  2.30361212E+00  2.33055647E+00  2.42785932E+00
  2.48556485E+00  2.50706467E+00  2.59310956E+00  2.62003223E+00  2.68630672E+00
  2.73055506E+00  2.76695695E+00  2.81330911E+00  2.81648981E+00  2.97800308E+00
  3.11349911E+00  3.20072012E+00  3.22372795E+00  3.41090765E+00  3.41914585E+00
  4.51225541E+00  4.52301219E+00  4.56775701E+00  4.62354000E+00  4.77959972E+00
  4.92745933E+00
Alpha MO coefficients                      R   N=       11236
  4.90063321E-01  1.33868110E-02 -1.15000123E-04 -1.49011972E-05 -5.12498669E-10
 -2.30759069E-03  2.81644194E-04  5.93563883E-04 -7.25395378E-09 -1.07003356E-03
 -1.23637464E-03 -1.27372570E-03 -1.37833054E-04  2.61447644E-09 -1.26581632E-09
  4.90060214E-01  1.33867223E-02  1.15002274E-04  1.49026480E-05  4.24961548E-10
 -2.30759378E-03 -2.81677181E-04 -5.93568406E-04  1.03159878E-08 -1.07002174E-03
 -1.23636394E-03 -1.27371719E-03 -1.37830088E-04  2.94909923E-09  1.32667439E-10
  5.03802543E-01  1.38739269E-02  3.97681835E-05  5.23799324E-05 -4.28977570E-10
 -4.52290743E-03  9.53265431E-04 -6.22469809E-04  8.32099157E-09 -9.21095461E-04
 -1.11253744E-03 -1.26873115E-03 -1.52463645E-04  2.29383998E-09 -2.82631278E-09
  5.03788731E-01  1.38735450E-02 -3.97657708E-05 -5.23778013E-05  1.49133498E-09
 -4.52273863E-03 -9.53272251E-04  6.22452595E-04 -2.44517497E-08 -9.21073864E-04
 -1.11251076E-03 -1.26869819E-03 -1.52461600E-04  7.00879944E-09 -6.54718184E-09
  3.65652600E-02  7.70771450E-04 -1.09915273E-04  2.80082729E-05 -4.97541719E-10
  2.12816159E-03  1.15565673E-03 -1.23001563E-04  2.29685063E-09 -1.57755626E-04
 -2.09124962E-04 -1.55176106E-04  2.75648265E-05 -3.50017584E-10  8.87116143E-10
  3.65642527E-02  7.70747715E-04  1.09912578E-04 -2.80072387E-05  1.39313724E-09
  2.12811746E-03 -1.15563452E-03  1.23001237E-04 -1.28948931E-08 -1.57749986E-04
 -2.09118875E-04 -1.55172748E-04  2.75639513E-05 -9.46539407E-10  1.83190445E-09
 -1.93026710E-04  3.92293719E-04 -1.93025718E-04  3.92289613E-04 -1.47170916E-04
  6.61454864E-04 -1.47169157E-04  6.61431947E-04 -2.06039650E-05  2.64394891E-04
 -9.52479949E-05 -8.25735346E-05 -2.06035891E-05  2.64391172E-04 -9.52464613E-05
 -8.25696932E-05 -1.76704513E-01 -5.01652655E-03 -1.11591263E-04 -6.57582352E-05
 -1.43477991E-10  1.82526446E-04  1.65065060E-03  2.15624135E-04  1.25279412E-09
  5.96343751E-04  5.60647270E-04  4.73528615E-04  1.48943468E-04 -2.31536806E-09
 -1.25273058E-09  1.76719735E-01  5.01694307E-03 -1.11586719E-04 -6.57572362E-05
  1.73723982E-09 -1.82637506E-04  1.65062984E-03  2.15607146E-04 -1.44490382E-09
 -5.96372572E-04 -5.60682046E-04 -4.73566524E-04 -1.48945054E-04  2.40112491E-09
  2.61063214E-09 -6.79501924E-01 -1.88071714E-02 -1.15881742E-04 -9.83085949E-05
  1.58249893E-09  8.27049048E-03  3.14672401E-04  8.85106030E-04 -1.49953517E-08
  1.09183156E-03  1.32320069E-03  1.62773755E-03  1.15153565E-04 -1.86660128E-09
  5.20463161E-09  6.79506898E-01  1.88073082E-02 -1.15881098E-04 -9.83081696E-05
  2.07212901E-09 -8.27049865E-03  3.14646301E-04  8.85111444E-04 -2.29638820E-08
 -1.09184510E-03 -1.32321543E-03 -1.62775156E-03 -1.15157464E-04  8.55822635E-09
 -1.05291525E-08 -5.11136685E-02 -1.20119700E-03  1.26626447E-04 -5.06076699E-05
  8.30953649E-10 -2.19914713E-03 -1.10435068E-03  3.49830891E-05 -1.83398166E-10
  2.71266142E-04  3.01335801E-04  1.71228268E-04 -3.69239037E-05  6.21094325E-10
 -2.35583524E-09  5.11140367E-02  1.20120295E-03  1.26627763E-04 -5.06076341E-05
  2.20016120E-09  2.19917306E-03 -1.10436701E-03  3.49833879E-05 -9.31363447E-09
 -2.71266512E-04 -3.01337556E-04 -1.71230457E-04  3.69240477E-05 -2.28761836E-09
  4.29906997E-09  4.48869847E-05 -2.57669962E-04 -4.48911710E-05  2.57688819E-04
  9.08754599E-05 -1.11999192E-03 -9.08782170E-05  1.11999320E-03  1.62916013E-05
 -1.88663043E-04  7.79542772E-05  1.98150006E-04 -1.62916441E-05  1.88668644E-04
 -7.79559407E-05 -1.98151573E-04  5.05180249E-01  1.38626157E-02 -2.17080469E-04
 -6.58698424E-05  1.58853850E-09 -6.14799368E-03  1.50780124E-03  4.92066230E-04
 -8.44409549E-09 -6.72026475E-04 -9.37519623E-04 -1.15585794E-03  1.14660503E-04
 -1.40109083E-09 -4.28628759E-09  5.05177446E-01  1.38625365E-02  2.17081698E-04
  6.58701191E-05 -7.39863747E-10 -6.14797339E-03 -1.50782069E-03 -4.92065630E-04
  5.30020359E-09 -6.72018983E-04 -9.37512600E-04 -1.15585079E-03  1.14662015E-04
 -7.91649484E-10 -4.63690667E-09 -4.88823277E-01 -1.34986323E-02 -1.53694273E-04
 -1.31811435E-04  1.65289986E-09  7.89308474E-03  7.29578859E-04  6.90327113E-04
 -9.23195607E-09  4.82294524E-04  7.28565310E-04  1.09921346E-03 -6.06288473E-05
  1.00244755E-09  6.79556410E-09 -4.88830225E-01 -1.34988249E-02  1.53695605E-04
  1.31812232E-04 -2.32599372E-09  7.89316523E-03 -7.29581217E-04 -6.90335119E-04
  1.34631717E-08  4.82306246E-04  7.28579315E-04  1.09923026E-03 -6.06272770E-05
 -4.48937556E-09  1.02670394E-08 -3.91922778E-02 -1.01765732E-03  7.45138295E-05
 -6.16891781E-05  8.51858626E-10 -1.58169148E-03 -6.55721954E-04  2.39074353E-04
 -3.83336841E-09  2.61015318E-04  2.43164453E-04  1.00221540E-04 -2.98858620E-05
  4.16361027E-10 -2.46020750E-09 -3.91928310E-02 -1.01767030E-03 -7.45150856E-05
  6.16897265E-05 -2.88283263E-09 -1.58171341E-03  6.55732863E-04 -2.39075249E-04
  1.29356940E-08  2.61018001E-04  2.43167561E-04  1.00223424E-04 -2.98861561E-05
  2.39257578E-09 -4.78441586E-09 -3.48500380E-05  1.01394447E-03 -3.48494049E-05
  1.01393989E-03  1.82385532E-05 -1.12833341E-03  1.82395399E-05 -1.12834461E-03
  2.82311168E-05  2.34108373E-05  2.45091726E-05  1.57734399E-05  2.82312677E-05
  2.34089670E-05  2.45099376E-05  1.57753647E-05  6.81729745E-01  1.90450129E-02
  2.98134957E-06 -2.45715319E-04  3.90146398E-09 -1.34046512E-02 -1.16804659E-03
  1.52436184E-03 -2.56891247E-08 -6.51506851E-04 -9.37522283E-04 -1.53385308E-03
 -5.13701624E-05  2.12602603E-09 -1.19217913E-08 -6.81730109E-01 -1.90450226E-02
  2.98107419E-06 -2.45715133E-04  4.08572483E-09  1.34046580E-02 -1.16804434E-03
  1.52436187E-03 -2.77259918E-08  6.51506577E-04  9.37523114E-04  1.53385381E-03
  5.13698139E-05 -2.48998478E-09  1.17970769E-08 -1.76193334E-01 -4.78332935E-03
 -1.02670488E-04 -1.33513738E-04  2.21083535E-09  5.02386712E-03  1.29633929E-03
  6.60668272E-04 -1.06973717E-08 -1.76024642E-04  5.00457275E-05  3.35784060E-04
 -1.45374204E-04  2.01193701E-09  5.25814958E-09  1.76194338E-01  4.78335724E-03
 -1.02670875E-04 -1.33513922E-04  2.18440188E-09 -5.02388077E-03  1.29634053E-03
  6.60668333E-04 -8.53365955E-09  1.76023393E-04 -5.00475307E-05 -3.35786401E-04
  1.45374161E-04  4.10113764E-10 -6.01548487E-09 -1.63959473E-02 -4.72462487E-04
  3.01739211E-05 -3.54672754E-05  3.15387100E-10 -5.49983421E-04 -4.00312069E-04
 -9.65926533E-05  2.30494184E-09  1.33293776E-04  1.31575220E-04  2.52523144E-05
 -4.02020776E-05  7.03490539E-10 -1.83986934E-09  1.63960392E-02  4.72464786E-04
  3.01740440E-05 -3.54674056E-05  2.48586499E-09  5.49986327E-04 -4.00313375E-04
 -9.65919513E-05 -3.98984992E-09 -1.33294195E-04 -1.31575755E-04 -2.52525912E-05
  4.02021001E-05 -1.95018029E-09  4.02829548E-09 -2.70784450E-05  1.43832019E-03
  2.70783031E-05 -1.43832136E-03 -4.50485618E-05 -3.94303078E-04  4.50485132E-05
  3.94305458E-04 -7.52404131E-06 -6.37650527E-05  2.94442085E-05 -4.05773025E-06
  7.52398115E-06  6.37650093E-05 -2.94442703E-05  4.05780765E-06  2.67311772E-03
 -1.67644005E-05  1.93657256E-05 -3.68710467E-05  1.04545917E-09 -2.14687574E-04
  1.79110622E-04  3.22040768E-04 -7.15058921E-09  1.06499909E-04  1.77728368E-05
 -1.58011479E-05  4.75533321E-05 -8.22984995E-10 -5.96660020E-10  2.65814951E-03
 -1.70271087E-05 -1.92834851E-05  3.66349663E-05 -9.97958604E-10 -2.08614704E-04
 -1.82549661E-04 -3.19742366E-04  5.54524092E-09  1.06099929E-04  1.75469754E-05
 -1.57982568E-05  4.73766206E-05  6.22776010E-11 -1.00399252E-09 -5.41126965E-02
 -1.69486777E-03  1.32178141E-04 -9.67449005E-05  1.32126814E-09  3.69495312E-03
 -9.94438844E-04  5.92732782E-04 -8.26021019E-09 -1.59532311E-04 -1.08484792E-04
  7.03059730E-05  3.24496522E-06  9.55422166E-11  3.31030603E-09 -5.38487920E-02
 -1.68664519E-03 -1.31509884E-04  9.63186286E-05 -3.66251746E-09  3.67771290E-03
  9.89281610E-04 -5.90818053E-04  2.52841400E-08 -1.58797016E-04 -1.07927073E-04
  6.99268996E-05  3.24317299E-06 -2.34100032E-09  5.24177716E-09  7.03680435E-01
  1.93744500E-02  3.95757604E-05 -7.02326970E-06 -3.79914838E-11 -8.34776022E-03
 -5.53005487E-04  1.84835086E-04 -2.59342053E-09 -1.17073789E-03 -1.34535682E-03
 -1.76616427E-03 -1.24949199E-04  1.86283040E-09 -7.60936166E-09  7.00251477E-01
  1.92799474E-02 -3.93200323E-05  7.01158473E-06 -2.70296240E-10 -8.30703160E-03
  5.50021504E-04 -1.83934104E-04  8.12251011E-09 -1.16503817E-03 -1.33880402E-03