opt=Tight                                                               
Freq      RMP2-FC                                                     6-31G(d)            
Number of atoms                            I               16
Info1-9                                    I   N=           9
          25          25        1002           0           0         100
           6           2           1
Charge                                     I                0
Multiplicity                               I                1
Number of electrons                        I               82
Number of alpha electrons                  I               41
Number of beta electrons                   I               41
Number of basis functions                  I              175
Number of independent functions            I              175
Number of point charges in /Mol/           I                0
Number of translation vectors              I                0
Atomic numbers                             I   N=          16
           9           9           9           8           6           6
           6           6           6           6           6           1
           1           1           1           1
Nuclear charges                            R   N=          16
  9.00000000E+00  9.00000000E+00  9.00000000E+00  8.00000000E+00  6.00000000E+00
  6.00000000E+00  6.00000000E+00  6.00000000E+00  6.00000000E+00  6.00000000E+00
  6.00000000E+00  1.00000000E+00  1.00000000E+00  1.00000000E+00  1.00000000E+00
  1.00000000E+00
Current cartesian coordinates              R   N=          48
  3.23632797E+00  2.04897902E+00  1.60870496E+00  5.67757634E+00 -1.32280829E-05
 -1.00163611E+00  3.23631852E+00 -2.04895635E+00  1.60873520E+00  1.64067157E+00
 -1.13383568E-05 -1.75520976E+00 -8.84057349E-01 -3.77945227E-06 -8.97413933E-01
 -2.10252819E+00 -2.30439630E+00 -5.52676864E-01 -2.10251874E+00  2.30439063E+00
 -5.52680643E-01 -4.63934002E+00 -2.28751348E+00  1.69890159E-01 -4.63933246E+00
  2.28751726E+00  1.69886379E-01 -5.90614439E+00  5.66917840E-06  5.35548386E-01
  3.40844611E+00 -8.60638843E-08  9.97869884E-02 -1.07601573E+00 -4.05348145E+00
 -8.61618741E-01 -1.07600250E+00  4.05347389E+00 -8.61620630E-01 -5.62517802E+00
 -4.06789817E+00  4.46872987E-01 -5.62516290E+00  4.06790762E+00  4.46863539E-01
 -7.88216486E+00  7.55890453E-06  1.09491110E+00
Force Field                                I                0
Int Atom Types                             I   N=          16
           0           0           0           0           0           0
           0           0           0           0           0           0
           0           0           0           0
MM charges                                 R   N=          16
  0.00000000E+00  0.00000000E+00  0.00000000E+00  0.00000000E+00  0.00000000E+00
  0.00000000E+00  0.00000000E+00  0.00000000E+00  0.00000000E+00  0.00000000E+00
  0.00000000E+00  0.00000000E+00  0.00000000E+00  0.00000000E+00  0.00000000E+00
  0.00000000E+00
Integer atomic weights                     I   N=          16
          19          19          19          16          12          12
          12          12          12          12          12           1
           1           1           1           1
Real atomic weights                        R   N=          16
  1.89984032E+01  1.89984032E+01  1.89984032E+01  1.59949146E+01  1.20000000E+01
  1.20000000E+01  1.20000000E+01  1.20000000E+01  1.20000000E+01  1.20000000E+01
  1.20000000E+01  1.00782504E+00  1.00782504E+00  1.00782504E+00  1.00782504E+00
  1.00782504E+00
Atom fragment info                         I   N=          16
           0           0           0           0           0           0
           0           0           0           0           0           0
           0           0           0           0
Atom residue num                           I   N=          16
           0           0           0           0           0           0
           0           0           0           0           0           0
           0           0           0           0
Nuclear spins                              I   N=          16
           1           1           1           0           0           0
           0           0           0           0           0           1
           1           1           1           1
Nuclear ZEff                               R   N=          16
 -6.75000000E+00 -6.75000000E+00 -6.75000000E+00 -5.60000000E+00 -3.60000000E+00
 -3.60000000E+00 -3.60000000E+00 -3.60000000E+00 -3.60000000E+00 -3.60000000E+00
 -3.60000000E+00 -1.00000000E+00 -1.00000000E+00 -1.00000000E+00 -1.00000000E+00
 -1.00000000E+00
Nuclear QMom                               R   N=          16
  0.00000000E+00  0.00000000E+00  0.00000000E+00  0.00000000E+00  0.00000000E+00
  0.00000000E+00  0.00000000E+00  0.00000000E+00  0.00000000E+00  0.00000000E+00
  0.00000000E+00  0.00000000E+00  0.00000000E+00  0.00000000E+00  0.00000000E+00
  0.00000000E+00
Nuclear GFac                               R   N=          16
  2.62886700E+00  2.62886700E+00  2.62886700E+00  0.00000000E+00  0.00000000E+00
  0.00000000E+00  0.00000000E+00  0.00000000E+00  0.00000000E+00  0.00000000E+00
  0.00000000E+00  2.79284600E+00  2.79284600E+00  2.79284600E+00  2.79284600E+00
  2.79284600E+00
MicOpt                                     I   N=          16
          -1          -1          -1          -1          -1          -1
          -1          -1          -1          -1          -1          -1
          -1          -1          -1          -1
Number of contracted shells                I               54
Number of primitive shells                 I              141
Pure/Cartesian d shells                    I                1
Pure/Cartesian f shells                    I                0
Highest angular momentum                   I                2
Largest degree of contraction              I                6
Shell types                                I   N=          54
           0          -1          -1           2           0          -1
          -1           2           0          -1          -1           2
           0          -1          -1           2           0          -1
          -1           2           0          -1          -1           2
           0          -1          -1           2           0          -1
          -1           2           0          -1          -1           2
           0          -1          -1           2           0          -1
          -1           2           0           0           0           0
           0           0           0           0           0           0
Number of primitives per shell             I   N=          54
           6           3           1           1           6           3
           1           1           6           3           1           1
           6           3           1           1           6           3
           1           1           6           3           1           1
           6           3           1           1           6           3
           1           1           6           3           1           1
           6           3           1           1           6           3
           1           1           3           1           3           1
           3           1           3           1           3           1
Shell to atom map                          I   N=          54
           1           1           1           1           2           2
           2           2           3           3           3           3
           4           4           4           4           5           5
           5           5           6           6           6           6
           7           7           7           7           8           8
           8           8           9           9           9           9
          10          10          10          10          11          11
          11          11          12          12          13          13
          14          14          15          15          16          16
Primitive exponents                        R   N=         141
  7.00171309E+03  1.05136609E+03  2.39285690E+02  6.73974453E+01  2.15199573E+01
  7.40310130E+00  2.08479528E+01  4.80830834E+00  1.34406986E+00  3.58151393E-01
  8.00000000E-01  7.00171309E+03  1.05136609E+03  2.39285690E+02  6.73974453E+01
  2.15199573E+01  7.40310130E+00  2.08479528E+01  4.80830834E+00  1.34406986E+00
  3.58151393E-01  8.00000000E-01  7.00171309E+03  1.05136609E+03  2.39285690E+02
  6.73974453E+01  2.15199573E+01  7.40310130E+00  2.08479528E+01  4.80830834E+00
  1.34406986E+00  3.58151393E-01  8.00000000E-01  5.48467166E+03  8.25234946E+02
  1.88046958E+02  5.29645000E+01  1.68975704E+01  5.79963534E+00  1.55396162E+01
  3.59993359E+00  1.01376175E+00  2.70005823E-01  8.00000000E-01  3.04752488E+03
  4.57369518E+02  1.03948685E+02  2.92101553E+01  9.28666296E+00  3.16392696E+00
  7.86827235E+00  1.88128854E+00  5.44249258E-01  1.68714478E-01  8.00000000E-01
  3.04752488E+03  4.57369518E+02  1.03948685E+02  2.92101553E+01  9.28666296E+00
  3.16392696E+00  7.86827235E+00  1.88128854E+00  5.44249258E-01  1.68714478E-01
  8.00000000E-01  3.04752488E+03  4.57369518E+02  1.03948685E+02  2.92101553E+01
  9.28666296E+00  3.16392696E+00  7.86827235E+00  1.88128854E+00  5.44249258E-01
  1.68714478E-01  8.00000000E-01  3.04752488E+03  4.57369518E+02  1.03948685E+02
  2.92101553E+01  9.28666296E+00  3.16392696E+00  7.86827235E+00  1.88128854E+00
  5.44249258E-01  1.68714478E-01  8.00000000E-01  3.04752488E+03  4.57369518E+02
  1.03948685E+02  2.92101553E+01  9.28666296E+00  3.16392696E+00  7.86827235E+00
  1.88128854E+00  5.44249258E-01  1.68714478E-01  8.00000000E-01  3.04752488E+03
  4.57369518E+02  1.03948685E+02  2.92101553E+01  9.28666296E+00  3.16392696E+00
  7.86827235E+00  1.88128854E+00  5.44249258E-01  1.68714478E-01  8.00000000E-01
  3.04752488E+03  4.57369518E+02  1.03948685E+02  2.92101553E+01  9.28666296E+00
  3.16392696E+00  7.86827235E+00  1.88128854E+00  5.44249258E-01  1.68714478E-01
  8.00000000E-01  1.87311370E+01  2.82539436E+00  6.40121692E-01  1.61277759E-01
  1.87311370E+01  2.82539436E+00  6.40121692E-01  1.61277759E-01  1.87311370E+01
  2.82539436E+00  6.40121692E-01  1.61277759E-01  1.87311370E+01  2.82539436E+00
  6.40121692E-01  1.61277759E-01  1.87311370E+01  2.82539436E+00  6.40121692E-01
  1.61277759E-01
Contraction coefficients                   R   N=         141
  1.81961690E-03  1.39160796E-02  6.84053245E-02  2.33185760E-01  4.71267439E-01
  3.56618546E-01 -1.08506975E-01 -1.46451658E-01  1.12868858E+00  1.00000000E+00
  1.00000000E+00  1.81961690E-03  1.39160796E-02  6.84053245E-02  2.33185760E-01
  4.71267439E-01  3.56618546E-01 -1.08506975E-01 -1.46451658E-01  1.12868858E+00
  1.00000000E+00  1.00000000E+00  1.81961690E-03  1.39160796E-02  6.84053245E-02
  2.33185760E-01  4.71267439E-01  3.56618546E-01 -1.08506975E-01 -1.46451658E-01
  1.12868858E+00  1.00000000E+00  1.00000000E+00  1.83107443E-03  1.39501722E-02
  6.84450781E-02  2.32714336E-01  4.70192898E-01  3.58520853E-01 -1.10777550E-01
 -1.48026263E-01  1.13076702E+00  1.00000000E+00  1.00000000E+00  1.83473713E-03
  1.40373228E-02  6.88426223E-02  2.32184443E-01  4.67941348E-01  3.62311985E-01
 -1.19332420E-01 -1.60854152E-01  1.14345644E+00  1.00000000E+00  1.00000000E+00
  1.83473713E-03  1.40373228E-02  6.88426223E-02  2.32184443E-01  4.67941348E-01
  3.62311985E-01 -1.19332420E-01 -1.60854152E-01  1.14345644E+00  1.00000000E+00
  1.00000000E+00  1.83473713E-03  1.40373228E-02  6.88426223E-02  2.32184443E-01
  4.67941348E-01  3.62311985E-01 -1.19332420E-01 -1.60854152E-01  1.14345644E+00
  1.00000000E+00  1.00000000E+00  1.83473713E-03  1.40373228E-02  6.88426223E-02
  2.32184443E-01  4.67941348E-01  3.62311985E-01 -1.19332420E-01 -1.60854152E-01
  1.14345644E+00  1.00000000E+00  1.00000000E+00  1.83473713E-03  1.40373228E-02
  6.88426223E-02  2.32184443E-01  4.67941348E-01  3.62311985E-01 -1.19332420E-01
 -1.60854152E-01  1.14345644E+00  1.00000000E+00  1.00000000E+00  1.83473713E-03
  1.40373228E-02  6.88426223E-02  2.32184443E-01  4.67941348E-01  3.62311985E-01
 -1.19332420E-01 -1.60854152E-01  1.14345644E+00  1.00000000E+00  1.00000000E+00
  1.83473713E-03  1.40373228E-02  6.88426223E-02  2.32184443E-01  4.67941348E-01
  3.62311985E-01 -1.19332420E-01 -1.60854152E-01  1.14345644E+00  1.00000000E+00
  1.00000000E+00  3.34946043E-02  2.34726953E-01  8.13757326E-01  1.00000000E+00
  3.34946043E-02  2.34726953E-01  8.13757326E-01  1.00000000E+00  3.34946043E-02
  2.34726953E-01  8.13757326E-01  1.00000000E+00  3.34946043E-02  2.34726953E-01
  8.13757326E-01  1.00000000E+00  3.34946043E-02  2.34726953E-01  8.13757326E-01
  1.00000000E+00
P(S=P) Contraction coefficients            R   N=         141
  0.00000000E+00  0.00000000E+00  0.00000000E+00  0.00000000E+00  0.00000000E+00
  0.00000000E+00  7.16287242E-02  3.45912103E-01  7.22469956E-01  1.00000000E+00
  0.00000000E+00  0.00000000E+00  0.00000000E+00  0.00000000E+00  0.00000000E+00
  0.00000000E+00  0.00000000E+00  7.16287242E-02  3.45912103E-01  7.22469956E-01
  1.00000000E+00  0.00000000E+00  0.00000000E+00  0.00000000E+00  0.00000000E+00
  0.00000000E+00  0.00000000E+00  0.00000000E+00  7.16287242E-02  3.45912103E-01
  7.22469956E-01  1.00000000E+00  0.00000000E+00  0.00000000E+00  0.00000000E+00
  0.00000000E+00  0.00000000E+00  0.00000000E+00  0.00000000E+00  7.08742682E-02
  3.39752839E-01  7.27158577E-01  1.00000000E+00  0.00000000E+00  0.00000000E+00
  0.00000000E+00  0.00000000E+00  0.00000000E+00  0.00000000E+00  0.00000000E+00
  6.89990666E-02  3.16423961E-01  7.44308291E-01  1.00000000E+00  0.00000000E+00
  0.00000000E+00  0.00000000E+00  0.00000000E+00  0.00000000E+00  0.00000000E+00
  0.00000000E+00  6.89990666E-02  3.16423961E-01  7.44308291E-01  1.00000000E+00
  0.00000000E+00  0.00000000E+00  0.00000000E+00  0.00000000E+00  0.00000000E+00
  0.00000000E+00  0.00000000E+00  6.89990666E-02  3.16423961E-01  7.44308291E-01
  1.00000000E+00  0.00000000E+00  0.00000000E+00  0.00000000E+00  0.00000000E+00
  0.00000000E+00  0.00000000E+00  0.00000000E+00  6.89990666E-02  3.16423961E-01
  7.44308291E-01  1.00000000E+00  0.00000000E+00  0.00000000E+00  0.00000000E+00
  0.00000000E+00  0.00000000E+00  0.00000000E+00  0.00000000E+00  6.89990666E-02
  3.16423961E-01  7.44308291E-01  1.00000000E+00  0.00000000E+00  0.00000000E+00
  0.00000000E+00  0.00000000E+00  0.00000000E+00  0.00000000E+00  0.00000000E+00
  6.89990666E-02  3.16423961E-01  7.44308291E-01  1.00000000E+00  0.00000000E+00
  0.00000000E+00  0.00000000E+00  0.00000000E+00  0.00000000E+00  0.00000000E+00
  0.00000000E+00  6.89990666E-02  3.16423961E-01  7.44308291E-01  1.00000000E+00
  0.00000000E+00  0.00000000E+00  0.00000000E+00  0.00000000E+00  0.00000000E+00
  0.00000000E+00  0.00000000E+00  0.00000000E+00  0.00000000E+00  0.00000000E+00
  0.00000000E+00  0.00000000E+00  0.00000000E+00  0.00000000E+00  0.00000000E+00
  0.00000000E+00  0.00000000E+00  0.00000000E+00  0.00000000E+00  0.00000000E+00
  0.00000000E+00
Coordinates of each shell                  R   N=         162
  3.23632800E+00  2.04897885E+00  1.60870484E+00  3.23632800E+00  2.04897885E+00
  1.60870484E+00  3.23632800E+00  2.04897885E+00  1.60870484E+00  3.23632800E+00
  2.04897885E+00  1.60870484E+00  5.67757630E+00 -1.34973861E-05 -1.00163622E+00
  5.67757630E+00 -1.34973861E-05 -1.00163622E+00  5.67757630E+00 -1.34973861E-05
 -1.00163622E+00  5.67757630E+00 -1.34973861E-05 -1.00163622E+00  3.23631839E+00
 -2.04895652E+00  1.60873508E+00  3.23631839E+00 -2.04895652E+00  1.60873508E+00
  3.23631839E+00 -2.04895652E+00  1.60873508E+00  3.23631839E+00 -2.04895652E+00
  1.60873508E+00  1.64067152E+00 -1.14444726E-05 -1.75520987E+00  1.64067152E+00
 -1.14444726E-05 -1.75520987E+00  1.64067152E+00 -1.14444726E-05 -1.75520987E+00
  1.64067152E+00 -1.14444726E-05 -1.75520987E+00 -8.84057395E-01 -3.78350877E-06
 -8.97414048E-01 -8.84057395E-01 -3.78350877E-06 -8.97414048E-01 -8.84057395E-01
 -3.78350877E-06 -8.97414048E-01 -8.84057395E-01 -3.78350877E-06 -8.97414048E-01
 -2.10252833E+00 -2.30439625E+00 -5.52676979E-01 -2.10252833E+00 -2.30439625E+00
 -5.52676979E-01 -2.10252833E+00 -2.30439625E+00 -5.52676979E-01 -2.10252833E+00
 -2.30439625E+00 -5.52676979E-01 -2.10251870E+00  2.30439067E+00 -5.52680758E-01
 -2.10251870E+00  2.30439067E+00 -5.52680758E-01 -2.10251870E+00  2.30439067E+00
 -5.52680758E-01 -2.10251870E+00  2.30439067E+00 -5.52680758E-01 -4.63934016E+00
 -2.28751334E+00  1.69890044E-01 -4.63934016E+00 -2.28751334E+00  1.69890044E-01
 -4.63934016E+00 -2.28751334E+00  1.69890044E-01 -4.63934016E+00 -2.28751334E+00
  1.69890044E-01 -4.63933241E+00  2.28751741E+00  1.69886264E-01 -4.63933241E+00
  2.28751741E+00  1.69886264E-01 -4.63933241E+00  2.28751741E+00  1.69886264E-01
 -4.63933241E+00  2.28751741E+00  1.69886264E-01 -5.90614443E+00  5.86813410E-06
  5.35548271E-01 -5.90614443E+00  5.86813410E-06  5.35548271E-01 -5.90614443E+00
  5.86813410E-06  5.35548271E-01 -5.90614443E+00  5.86813410E-06  5.35548271E-01
  3.40844607E+00 -2.63639997E-07  9.97868732E-02  3.40844607E+00 -2.63639997E-07
  9.97868732E-02  3.40844607E+00 -2.63639997E-07  9.97868732E-02  3.40844607E+00
 -2.63639997E-07  9.97868732E-02 -1.07601594E+00 -4.05348145E+00 -8.61618856E-01
 -1.07601594E+00 -4.05348145E+00 -8.61618856E-01 -1.07600238E+00  4.05347390E+00
 -8.61620746E-01 -1.07600238E+00  4.05347390E+00 -8.61620746E-01 -5.62517823E+00
 -4.06789799E+00  4.46872872E-01 -5.62517823E+00 -4.06789799E+00  4.46872872E-01
 -5.62516278E+00  4.06790781E+00  4.46863423E-01 -5.62516278E+00  4.06790781E+00
  4.46863423E-01 -7.88216491E+00  7.83773864E-06  1.09491099E+00 -7.88216491E+00
  7.83773864E-06  1.09491099E+00
Constraint Structure                       R   N=          48
  3.23632800E+00  2.04897885E+00  1.60870484E+00  5.67757630E+00 -1.34973861E-05
 -1.00163622E+00  3.23631839E+00 -2.04895652E+00  1.60873508E+00  1.64067152E+00
 -1.14444726E-05 -1.75520987E+00 -8.84057395E-01 -3.78350877E-06 -8.97414048E-01
 -2.10252833E+00 -2.30439625E+00 -5.52676979E-01 -2.10251870E+00  2.30439067E+00
 -5.52680758E-01 -4.63934016E+00 -2.28751334E+00  1.69890044E-01 -4.63933241E+00
  2.28751741E+00  1.69886264E-01 -5.90614443E+00  5.86813410E-06  5.35548271E-01
  3.40844607E+00 -2.63639997E-07  9.97868732E-02 -1.07601594E+00 -4.05348145E+00
 -8.61618856E-01 -1.07600238E+00  4.05347390E+00 -8.61620746E-01 -5.62517823E+00
 -4.06789799E+00  4.46872872E-01 -5.62516278E+00  4.06790781E+00  4.46863423E-01
 -7.88216491E+00  7.83773864E-06  1.09491099E+00
Num ILSW                                   I              100
ILSW                                       I   N=         100
           0           1           0           0           2           0
           0           0           0           0           0          -1
           0           0           0           0           0           0
           0           0           0           0           1           0
           1           0           0           0           0           0
           0           0      100000           0          -1           0
           0           0           0           0           0           0
           0           0           0           1           1           0
           0           0           1           0           0           0
           0           0           4          40           0           0
           0           0           0           0           0           0
           0           0           0           0           0           0
           0           0           0           0           0           0
           0           0           0           0           0           0
           0           0           0           0           0           0
           0           0           0           0           0           0
           0           0           0           0
Num RLSW                                   I               40
RLSW                                       R   N=          40
  1.00000000E+00  1.00000000E+00  1.00000000E+00  1.00000000E+00  1.00000000E+00
  0.00000000E+00  0.00000000E+00  1.00000000E+00  0.00000000E+00  0.00000000E+00
  0.00000000E+00  0.00000000E+00  1.00000000E+00  0.00000000E+00  0.00000000E+00
  0.00000000E+00  0.00000000E+00  1.00000000E+00  0.00000000E+00  0.00000000E+00
  0.00000000E+00  0.00000000E+00  1.00000000E+00  0.00000000E+00  0.00000000E+00
  0.00000000E+00  0.00000000E+00  1.00000000E+00  0.00000000E+00  0.00000000E+00
  0.00000000E+00  0.00000000E+00  0.00000000E+00  0.00000000E+00  0.00000000E+00
  0.00000000E+00  0.00000000E+00  0.00000000E+00  1.00000000E+00  1.00000000E+00
MxBond                                     I                4
NBond                                      I   N=          16
           1           1           1           2           3           3
           3           3           3           3           4           1
           1           1           1           1
IBond                                      I   N=          64
          11           0           0           0          11           0
           0           0          11           0           0           0
           5          11           0           0           4           6
           7           0           5           8          12           0
           5           9          13           0           6          10
          14           0           7          10          15           0
           8           9          16           0           1           2
           3           4           6           0           0           0
           7           0           0           0           8           0
           0           0           9           0           0           0
          10           0           0           0
RBond                                      R   N=          64
  1.00000000E+00  0.00000000E+00  0.00000000E+00  0.00000000E+00  1.00000000E+00
  0.00000000E+00  0.00000000E+00  0.00000000E+00  1.00000000E+00  0.00000000E+00
  0.00000000E+00  0.00000000E+00  1.00000000E+00  1.50000000E+00  0.00000000E+00
  0.00000000E+00  1.00000000E+00  1.50000000E+00  1.50000000E+00  0.00000000E+00
  1.50000000E+00  1.50000000E+00  1.00000000E+00  0.00000000E+00  1.50000000E+00
  1.50000000E+00  1.00000000E+00  0.00000000E+00  1.50000000E+00  1.50000000E+00
  1.00000000E+00  0.00000000E+00  1.50000000E+00  1.50000000E+00  1.00000000E+00
  0.00000000E+00  1.50000000E+00  1.50000000E+00  1.00000000E+00  0.00000000E+00
  1.00000000E+00  1.00000000E+00  1.00000000E+00  1.50000000E+00  1.00000000E+00
  0.00000000E+00  0.00000000E+00  0.00000000E+00  1.00000000E+00  0.00000000E+00
  0.00000000E+00  0.00000000E+00  1.00000000E+00  0.00000000E+00  0.00000000E+00
  0.00000000E+00  1.00000000E+00  0.00000000E+00  0.00000000E+00  0.00000000E+00
  1.00000000E+00  0.00000000E+00  0.00000000E+00  0.00000000E+00
Virial Ratio                               R      2.002625095519575E+00
SCF Energy                                 R     -6.411824615529786E+02
MP2 Energy                                 R     -6.427500710532027E+02
Total Energy                               R     -6.427500710532027E+02
Post-SCF wavefunction norm                 R      1.716520809370686E+00
RMS Force                                  R      3.493343934914626E-07
RMS Density                                R      1.653753055437201E-09
External E-field                           R   N=          35
  0.00000000E+00  0.00000000E+00  0.00000000E+00  0.00000000E+00  0.00000000E+00
  0.00000000E+00  0.00000000E+00  0.00000000E+00  0.00000000E+00  0.00000000E+00
  0.00000000E+00  0.00000000E+00  0.00000000E+00  0.00000000E+00  0.00000000E+00
  0.00000000E+00  0.00000000E+00  0.00000000E+00  0.00000000E+00  0.00000000E+00
  0.00000000E+00  0.00000000E+00  0.00000000E+00  0.00000000E+00  0.00000000E+00
  0.00000000E+00  0.00000000E+00  0.00000000E+00  0.00000000E+00  0.00000000E+00
  0.00000000E+00  0.00000000E+00  0.00000000E+00  0.00000000E+00  0.00000000E+00
IOpCl                                      I                0
IROHF                                      I                0
Alpha Orbital Energies                     R   N=         175
 -2.63495929E+01 -2.63479239E+01 -2.63479033E+01 -2.06372292E+01 -1.15687254E+01
 -1.13180050E+01 -1.12561255E+01 -1.12560728E+01 -1.12550139E+01 -1.12548719E+01
 -1.12522703E+01 -1.73794352E+00 -1.63933437E+00 -1.63450490E+00 -1.45717631E+00
 -1.16632992E+00 -1.03897518E+00 -1.03434750E+00 -9.56083485E-01 -8.68429180E-01
 -8.56483602E-01 -8.31727702E-01 -8.30407625E-01 -7.94990081E-01 -7.25136237E-01
 -7.13050613E-01 -7.05330138E-01 -6.68842842E-01 -6.66192510E-01 -6.62558855E-01
 -6.52624716E-01 -6.47680021E-01 -6.36553115E-01 -6.07608290E-01 -6.05557741E-01
 -5.51728318E-01 -5.30218195E-01 -5.12095454E-01 -5.01439837E-01 -3.51541159E-01
 -3.49133455E-01  1.25060873E-01  1.27766296E-01  2.21040219E-01  2.78469156E-01
  2.90896907E-01  3.15202117E-01  3.23490327E-01  3.44694729E-01  3.62016743E-01
  4.01687779E-01  4.08860636E-01  4.26157417E-01  4.41720766E-01  4.57708399E-01
  4.92224585E-01  5.24477503E-01  5.51369274E-01  6.34894918E-01  6.69437498E-01
  6.90460309E-01  7.15777396E-01  7.35479852E-01  7.35685009E-01  7.40694619E-01
  7.80147899E-01  7.91009643E-01  8.02579109E-01  8.16865253E-01  8.18534450E-01
  8.22570165E-01  8.42685391E-01  8.76211535E-01  8.95180074E-01  8.97391064E-01
  9.84712973E-01  1.05372902E+00  1.06912308E+00  1.09221786E+00  1.09972498E+00
  1.10778272E+00  1.13140846E+00  1.16311530E+00  1.18317375E+00  1.18758645E+00
  1.21260386E+00  1.25572159E+00  1.26490425E+00  1.29888611E+00  1.32967789E+00
  1.33991566E+00  1.37904051E+00  1.38558376E+00  1.40543768E+00  1.42594735E+00
  1.44910337E+00  1.50871152E+00  1.52297466E+00  1.56237786E+00  1.60935314E+00
  1.62498289E+00  1.65308710E+00  1.65539479E+00  1.66074142E+00  1.66616954E+00
  1.69917281E+00  1.70239447E+00  1.73121280E+00  1.73440328E+00  1.75196569E+00
  1.77002216E+00  1.80273221E+00  1.91539231E+00  1.95444680E+00  1.97718321E+00
  2.08148297E+00  2.08150934E+00  2.10301036E+00  2.12877066E+00  2.13270864E+00
  2.13304414E+00  2.16855174E+00  2.18578007E+00  2.19210527E+00  2.22615660E+00
  2.22628415E+00  2.25880593E+00  2.28024763E+00  2.28324080E+00  2.29055316E+00
  2.34109825E+00  2.34656134E+00  2.37033908E+00  2.37594176E+00  2.41801978E+00
  2.42347398E+00  2.44842882E+00  2.45943421E+00  2.51698799E+00  2.56118893E+00
  2.61006424E+00  2.62252012E+00  2.62644585E+00  2.66788426E+00  2.79127219E+00
  2.83474951E+00  2.84657068E+00  2.91535608E+00  2.92722726E+00  2.95819890E+00
  2.97845271E+00  3.04033069E+00  3.05833740E+00  3.06250422E+00  3.11948956E+00
  3.13313765E+00  3.18178922E+00  3.24943963E+00  3.37746730E+00  3.40751617E+00
  3.42320607E+00  3.45955363E+00  3.52842662E+00  3.77826702E+00  4.43005880E+00
  4.49717409E+00  4.51513832E+00  4.60466130E+00  4.70857325E+00  4.75531694E+00
  4.83591235E+00  4.84683792E+00  5.12616947E+00  5.30472155E+00  6.06688425E+00
Alpha MO coefficients                      R   N=       30625
 -5.61060317E-03  7.31662682E-05 -5.56931827E-06  4.31091339E-07  1.55512371E-06
 -6.22937345E-04 -7.04540464E-05  1.45827111E-04  1.39023645E-04  1.11277165E-04
  9.09967009E-05  8.55484290E-05  3.64053114E-05  3.97499798E-05 -5.19532476E-05
  9.94408749E-01  1.79063758E-02 -8.81699405E-04  5.24486209E-09  4.38115146E-04
  7.67057890E-03  6.73559451E-04 -3.83201119E-09 -3.36968042E-04 -4.88709507E-03
 -4.47571456E-03 -4.56795697E-03  2.80176283E-09  2.39646315E-04 -1.27984126E-09
 -5.61007350E-03  7.31760499E-05 -5.56923048E-06 -4.30614934E-07  1.55478025E-06
 -6.22934221E-04 -7.04549175E-05 -1.45825026E-04  1.39026208E-04  1.11274672E-04
  9.09960025E-05  8.55447654E-05 -3.64048608E-05  3.97508242E-05  5.19531191E-05
  4.48494510E-06  5.36648379E-05 -1.30757891E-05 -5.57752138E-11 -1.02753869E-05
 -1.94343482E-04 -2.91784056E-04  1.69914737E-11 -8.99797351E-05 -7.48187566E-05
  1.15938222E-05  2.19985279E-06 -1.85788557E-10 -5.21787016E-05  4.03728322E-11
  2.47706157E-06  1.01763520E-05  1.01345240E-05  5.00420126E-11  3.38943043E-06
 -1.03064432E-04 -2.19165429E-04 -3.46606765E-10  4.55661253E-05  4.86933094E-06
  5.67982197E-06  7.94173511E-06 -3.55178193E-11 -5.37831924E-06 -1.70808224E-11
  1.27288675E-06  5.94723860E-06 -9.00410068E-08  1.49843568E-06  1.41103133E-06
 -8.29564317E-05  7.62121067E-05 -6.34045146E-05 -2.12823881E-05  2.63626800E-06
 -2.16141546E-06  3.17632772E-06  2.28340001E-06  7.37584657E-07  4.88427306E-08
  1.27289621E-06  5.94722089E-06 -8.99994027E-08 -1.49845939E-06  1.41108501E-06
 -8.29558232E-05  7.62128995E-05  6.34039539E-05 -2.12828299E-05  2.63631670E-06
 -2.16137593E-06  3.17636684E-06 -2.28344224E-06  7.37559329E-07 -4.88124579E-08
 -2.91752417E-07 -1.65821838E-06  1.57645966E-06  9.66346213E-07 -7.61519324E-07
  8.89761609E-05  3.07357077E-05  2.13338108E-05 -7.44246766E-06  3.90036239E-07
 -1.81218237E-07 -1.56971143E-07  8.99578919E-09  1.61222046E-07  2.51288879E-07
 -2.91755941E-07 -1.65822637E-06  1.57643270E-06 -9.66360804E-07 -7.61529177E-07
  8.89763355E-05  3.07359275E-05 -2.13337385E-05 -7.44239580E-06  3.90032809E-07
 -1.81230232E-07 -1.56986681E-07 -9.00619705E-09  1.61233933E-07 -2.51291237E-07
  7.49740949E-07  3.88980618E-06  1.11003620E-06 -2.03070374E-12 -5.62690174E-07
 -4.51304822E-05 -3.63059020E-05  1.82201474E-10  1.01184650E-05  2.95276221E-07
 -1.25462117E-07  1.52343292E-06  1.19204636E-12  4.89050921E-07 -6.36613127E-12
 -1.05558885E-05  2.52963772E-04  5.32028181E-04 -3.21202662E-09 -2.38653063E-04
  7.46810079E-04 -8.41397507E-05 -4.92126474E-10 -1.24752279E-06  2.23610705E-04
  4.20320506E-05  9.60380870E-05 -1.17297934E-09 -1.01894401E-04  6.41679993E-10