13089810                                                                
Freq      RMP2-FC                                                     6-31G(d)            
Number of atoms                            I               18
Info1-9                                    I   N=           9
          30          28        1002           0           0         100
           6           2           1
Charge                                     I                0
Multiplicity                               I                1
Number of electrons                        I               66
Number of alpha electrons                  I               33
Number of beta electrons                   I               33
Number of basis functions                  I              153
Number of independent functions            I              153
Number of point charges in /Mol/           I                0
Number of translation vectors              I                0
Atomic numbers                             I   N=          18
           8           7           6           6           6           6
           6           6           6           1           1           1
           1           1           1           1           1           1
Nuclear charges                            R   N=          18
  8.00000000E+00  7.00000000E+00  6.00000000E+00  6.00000000E+00  6.00000000E+00
  6.00000000E+00  6.00000000E+00  6.00000000E+00  6.00000000E+00  1.00000000E+00
  1.00000000E+00  1.00000000E+00  1.00000000E+00  1.00000000E+00  1.00000000E+00
  1.00000000E+00  1.00000000E+00  1.00000000E+00
Current cartesian coordinates              R   N=          54
  3.24138886E+00  7.04763730E-01  1.79128623E-05  3.23558747E-01 -2.57401344E+00
  1.07438696E-05 -1.05145129E+00  1.81494997E+00  5.42101086E-20  7.99764114E-01
 -1.06947215E-01  1.05291315E-05 -3.55136882E+00  1.01072618E+00 -5.92610625E-06
 -2.78581992E-01  4.54230807E+00 -1.92656635E-06 -4.11693018E+00 -1.57540003E+00
 -5.14860718E-06 -2.12915721E+00 -3.28439335E+00  1.19118957E-06  5.12251739E+00
 -1.24859820E+00 -1.75838154E-05 -5.06256642E+00  2.40686155E+00 -1.44123145E-05
 -1.94056038E+00  5.76938570E+00 -3.49039479E-05  8.71838644E-01  4.97809326E+00
  1.66126170E+00  8.71892812E-01  4.97807525E+00 -1.66123244E+00 -6.05919787E+00
 -2.23780950E+00 -9.51997291E-06 -2.46601636E+00 -5.31315815E+00  1.25878323E-06
  4.94995628E+00 -2.43669903E+00 -1.67829100E+00  4.95004668E+00 -2.43667112E+00
  1.67828594E+00  6.91983243E+00 -2.43966191E-01 -7.19424364E-05
Force Field                                I                0
Int Atom Types                             I   N=          18
           0           0           0           0           0           0
           0           0           0           0           0           0
           0           0           0           0           0           0
MM charges                                 R   N=          18
  0.00000000E+00  0.00000000E+00  0.00000000E+00  0.00000000E+00  0.00000000E+00
  0.00000000E+00  0.00000000E+00  0.00000000E+00  0.00000000E+00  0.00000000E+00
  0.00000000E+00  0.00000000E+00  0.00000000E+00  0.00000000E+00  0.00000000E+00
  0.00000000E+00  0.00000000E+00  0.00000000E+00
Integer atomic weights                     I   N=          18
          16          14          12          12          12          12
          12          12          12           1           1           1
           1           1           1           1           1           1
Real atomic weights                        R   N=          18
  1.59949146E+01  1.40030740E+01  1.20000000E+01  1.20000000E+01  1.20000000E+01
  1.20000000E+01  1.20000000E+01  1.20000000E+01  1.20000000E+01  1.00782504E+00
  1.00782504E+00  1.00782504E+00  1.00782504E+00  1.00782504E+00  1.00782504E+00
  1.00782504E+00  1.00782504E+00  1.00782504E+00
Atom fragment info                         I   N=          18
           0           0           0           0           0           0
           0           0           0           0           0           0
           0           0           0           0           0           0
Atom residue num                           I   N=          18
           0           0           0           0           0           0
           0           0           0           0           0           0
           0           0           0           0           0           0
Nuclear spins                              I   N=          18
           0           2           0           0           0           0
           0           0           0           1           1           1
           1           1           1           1           1           1
Nuclear ZEff                               R   N=          18
 -5.60000000E+00 -4.55000000E+00 -3.60000000E+00 -3.60000000E+00 -3.60000000E+00
 -3.60000000E+00 -3.60000000E+00 -3.60000000E+00 -3.60000000E+00 -1.00000000E+00
 -1.00000000E+00 -1.00000000E+00 -1.00000000E+00 -1.00000000E+00 -1.00000000E+00
 -1.00000000E+00 -1.00000000E+00 -1.00000000E+00
Nuclear QMom                               R   N=          18
  0.00000000E+00  2.04400000E+00  0.00000000E+00  0.00000000E+00  0.00000000E+00
  0.00000000E+00  0.00000000E+00  0.00000000E+00  0.00000000E+00  0.00000000E+00
  0.00000000E+00  0.00000000E+00  0.00000000E+00  0.00000000E+00  0.00000000E+00
  0.00000000E+00  0.00000000E+00  0.00000000E+00
Nuclear GFac                               R   N=          18
  0.00000000E+00  4.03761000E-01  0.00000000E+00  0.00000000E+00  0.00000000E+00
  0.00000000E+00  0.00000000E+00  0.00000000E+00  0.00000000E+00  2.79284600E+00
  2.79284600E+00  2.79284600E+00  2.79284600E+00  2.79284600E+00  2.79284600E+00
  2.79284600E+00  2.79284600E+00  2.79284600E+00
MicOpt                                     I   N=          18
          -1          -1          -1          -1          -1          -1
          -1          -1          -1          -1          -1          -1
          -1          -1          -1          -1          -1          -1
Number of contracted shells                I               54
Number of primitive shells                 I              135
Pure/Cartesian d shells                    I                1
Pure/Cartesian f shells                    I                0
Highest angular momentum                   I                2
Largest degree of contraction              I                6
Shell types                                I   N=          54
           0          -1          -1           2           0          -1
          -1           2           0          -1          -1           2
           0          -1          -1           2           0          -1
          -1           2           0          -1          -1           2
           0          -1          -1           2           0          -1
          -1           2           0          -1          -1           2
           0           0           0           0           0           0
           0           0           0           0           0           0
           0           0           0           0           0           0
Number of primitives per shell             I   N=          54
           6           3           1           1           6           3
           1           1           6           3           1           1
           6           3           1           1           6           3
           1           1           6           3           1           1
           6           3           1           1           6           3
           1           1           6           3           1           1
           3           1           3           1           3           1
           3           1           3           1           3           1
           3           1           3           1           3           1
Shell to atom map                          I   N=          54
           1           1           1           1           2           2
           2           2           3           3           3           3
           4           4           4           4           5           5
           5           5           6           6           6           6
           7           7           7           7           8           8
           8           8           9           9           9           9
          10          10          11          11          12          12
          13          13          14          14          15          15
          16          16          17          17          18          18
Primitive exponents                        R   N=         135
  5.48467166E+03  8.25234946E+02  1.88046958E+02  5.29645000E+01  1.68975704E+01
  5.79963534E+00  1.55396162E+01  3.59993359E+00  1.01376175E+00  2.70005823E-01
  8.00000000E-01  4.17351146E+03  6.27457911E+02  1.42902093E+02  4.02343293E+01
  1.28202129E+01  4.39043701E+00  1.16263619E+01  2.71627981E+00  7.72218397E-01
  2.12031498E-01  8.00000000E-01  3.04752488E+03  4.57369518E+02  1.03948685E+02
  2.92101553E+01  9.28666296E+00  3.16392696E+00  7.86827235E+00  1.88128854E+00
  5.44249258E-01  1.68714478E-01  8.00000000E-01  3.04752488E+03  4.57369518E+02
  1.03948685E+02  2.92101553E+01  9.28666296E+00  3.16392696E+00  7.86827235E+00
  1.88128854E+00  5.44249258E-01  1.68714478E-01  8.00000000E-01  3.04752488E+03
  4.57369518E+02  1.03948685E+02  2.92101553E+01  9.28666296E+00  3.16392696E+00
  7.86827235E+00  1.88128854E+00  5.44249258E-01  1.68714478E-01  8.00000000E-01
  3.04752488E+03  4.57369518E+02  1.03948685E+02  2.92101553E+01  9.28666296E+00
  3.16392696E+00  7.86827235E+00  1.88128854E+00  5.44249258E-01  1.68714478E-01
  8.00000000E-01  3.04752488E+03  4.57369518E+02  1.03948685E+02  2.92101553E+01
  9.28666296E+00  3.16392696E+00  7.86827235E+00  1.88128854E+00  5.44249258E-01
  1.68714478E-01  8.00000000E-01  3.04752488E+03  4.57369518E+02  1.03948685E+02
  2.92101553E+01  9.28666296E+00  3.16392696E+00  7.86827235E+00  1.88128854E+00
  5.44249258E-01  1.68714478E-01  8.00000000E-01  3.04752488E+03  4.57369518E+02
  1.03948685E+02  2.92101553E+01  9.28666296E+00  3.16392696E+00  7.86827235E+00
  1.88128854E+00  5.44249258E-01  1.68714478E-01  8.00000000E-01  1.87311370E+01
  2.82539436E+00  6.40121692E-01  1.61277759E-01  1.87311370E+01  2.82539436E+00
  6.40121692E-01  1.61277759E-01  1.87311370E+01  2.82539436E+00  6.40121692E-01
  1.61277759E-01  1.87311370E+01  2.82539436E+00  6.40121692E-01  1.61277759E-01
  1.87311370E+01  2.82539436E+00  6.40121692E-01  1.61277759E-01  1.87311370E+01
  2.82539436E+00  6.40121692E-01  1.61277759E-01  1.87311370E+01  2.82539436E+00
  6.40121692E-01  1.61277759E-01  1.87311370E+01  2.82539436E+00  6.40121692E-01
  1.61277759E-01  1.87311370E+01  2.82539436E+00  6.40121692E-01  1.61277759E-01
Contraction coefficients                   R   N=         135
  1.83107443E-03  1.39501722E-02  6.84450781E-02  2.32714336E-01  4.70192898E-01
  3.58520853E-01 -1.10777550E-01 -1.48026263E-01  1.13076702E+00  1.00000000E+00
  1.00000000E+00  1.83477216E-03  1.39946270E-02  6.85865518E-02  2.32240873E-01
  4.69069948E-01  3.60455199E-01 -1.14961182E-01 -1.69117479E-01  1.14585195E+00
  1.00000000E+00  1.00000000E+00  1.83473713E-03  1.40373228E-02  6.88426223E-02
  2.32184443E-01  4.67941348E-01  3.62311985E-01 -1.19332420E-01 -1.60854152E-01
  1.14345644E+00  1.00000000E+00  1.00000000E+00  1.83473713E-03  1.40373228E-02
  6.88426223E-02  2.32184443E-01  4.67941348E-01  3.62311985E-01 -1.19332420E-01
 -1.60854152E-01  1.14345644E+00  1.00000000E+00  1.00000000E+00  1.83473713E-03
  1.40373228E-02  6.88426223E-02  2.32184443E-01  4.67941348E-01  3.62311985E-01
 -1.19332420E-01 -1.60854152E-01  1.14345644E+00  1.00000000E+00  1.00000000E+00
  1.83473713E-03  1.40373228E-02  6.88426223E-02  2.32184443E-01  4.67941348E-01
  3.62311985E-01 -1.19332420E-01 -1.60854152E-01  1.14345644E+00  1.00000000E+00
  1.00000000E+00  1.83473713E-03  1.40373228E-02  6.88426223E-02  2.32184443E-01
  4.67941348E-01  3.62311985E-01 -1.19332420E-01 -1.60854152E-01  1.14345644E+00
  1.00000000E+00  1.00000000E+00  1.83473713E-03  1.40373228E-02  6.88426223E-02
  2.32184443E-01  4.67941348E-01  3.62311985E-01 -1.19332420E-01 -1.60854152E-01
  1.14345644E+00  1.00000000E+00  1.00000000E+00  1.83473713E-03  1.40373228E-02
  6.88426223E-02  2.32184443E-01  4.67941348E-01  3.62311985E-01 -1.19332420E-01
 -1.60854152E-01  1.14345644E+00  1.00000000E+00  1.00000000E+00  3.34946043E-02
  2.34726953E-01  8.13757326E-01  1.00000000E+00  3.34946043E-02  2.34726953E-01
  8.13757326E-01  1.00000000E+00  3.34946043E-02  2.34726953E-01  8.13757326E-01
  1.00000000E+00  3.34946043E-02  2.34726953E-01  8.13757326E-01  1.00000000E+00
  3.34946043E-02  2.34726953E-01  8.13757326E-01  1.00000000E+00  3.34946043E-02
  2.34726953E-01  8.13757326E-01  1.00000000E+00  3.34946043E-02  2.34726953E-01
  8.13757326E-01  1.00000000E+00  3.34946043E-02  2.34726953E-01  8.13757326E-01
  1.00000000E+00  3.34946043E-02  2.34726953E-01  8.13757326E-01  1.00000000E+00
P(S=P) Contraction coefficients            R   N=         135
  0.00000000E+00  0.00000000E+00  0.00000000E+00  0.00000000E+00  0.00000000E+00
  0.00000000E+00  7.08742682E-02  3.39752839E-01  7.27158577E-01  1.00000000E+00
  0.00000000E+00  0.00000000E+00  0.00000000E+00  0.00000000E+00  0.00000000E+00
  0.00000000E+00  0.00000000E+00  6.75797439E-02  3.23907296E-01  7.40895140E-01
  1.00000000E+00  0.00000000E+00  0.00000000E+00  0.00000000E+00  0.00000000E+00
  0.00000000E+00  0.00000000E+00  0.00000000E+00  6.89990666E-02  3.16423961E-01
  7.44308291E-01  1.00000000E+00  0.00000000E+00  0.00000000E+00  0.00000000E+00
  0.00000000E+00  0.00000000E+00  0.00000000E+00  0.00000000E+00  6.89990666E-02
  3.16423961E-01  7.44308291E-01  1.00000000E+00  0.00000000E+00  0.00000000E+00
  0.00000000E+00  0.00000000E+00  0.00000000E+00  0.00000000E+00  0.00000000E+00
  6.89990666E-02  3.16423961E-01  7.44308291E-01  1.00000000E+00  0.00000000E+00
  0.00000000E+00  0.00000000E+00  0.00000000E+00  0.00000000E+00  0.00000000E+00
  0.00000000E+00  6.89990666E-02  3.16423961E-01  7.44308291E-01  1.00000000E+00
  0.00000000E+00  0.00000000E+00  0.00000000E+00  0.00000000E+00  0.00000000E+00
  0.00000000E+00  0.00000000E+00  6.89990666E-02  3.16423961E-01  7.44308291E-01
  1.00000000E+00  0.00000000E+00  0.00000000E+00  0.00000000E+00  0.00000000E+00
  0.00000000E+00  0.00000000E+00  0.00000000E+00  6.89990666E-02  3.16423961E-01
  7.44308291E-01  1.00000000E+00  0.00000000E+00  0.00000000E+00  0.00000000E+00
  0.00000000E+00  0.00000000E+00  0.00000000E+00  0.00000000E+00  6.89990666E-02
  3.16423961E-01  7.44308291E-01  1.00000000E+00  0.00000000E+00  0.00000000E+00
  0.00000000E+00  0.00000000E+00  0.00000000E+00  0.00000000E+00  0.00000000E+00
  0.00000000E+00  0.00000000E+00  0.00000000E+00  0.00000000E+00  0.00000000E+00
  0.00000000E+00  0.00000000E+00  0.00000000E+00  0.00000000E+00  0.00000000E+00
  0.00000000E+00  0.00000000E+00  0.00000000E+00  0.00000000E+00  0.00000000E+00
  0.00000000E+00  0.00000000E+00  0.00000000E+00  0.00000000E+00  0.00000000E+00
  0.00000000E+00  0.00000000E+00  0.00000000E+00  0.00000000E+00  0.00000000E+00
  0.00000000E+00  0.00000000E+00  0.00000000E+00  0.00000000E+00  0.00000000E+00
Coordinates of each shell                  R   N=         162
  3.24138886E+00  7.04763730E-01  1.79128623E-05  3.24138886E+00  7.04763730E-01
  1.79128623E-05  3.24138886E+00  7.04763730E-01  1.79128623E-05  3.24138886E+00
  7.04763730E-01  1.79128623E-05  3.23558747E-01 -2.57401344E+00  1.07438696E-05
  3.23558747E-01 -2.57401344E+00  1.07438696E-05  3.23558747E-01 -2.57401344E+00
  1.07438696E-05  3.23558747E-01 -2.57401344E+00  1.07438696E-05 -1.05145129E+00
  1.81494997E+00  0.00000000E+00 -1.05145129E+00  1.81494997E+00  0.00000000E+00
 -1.05145129E+00  1.81494997E+00  0.00000000E+00 -1.05145129E+00  1.81494997E+00
  0.00000000E+00  7.99764114E-01 -1.06947215E-01  1.05291315E-05  7.99764114E-01
 -1.06947215E-01  1.05291315E-05  7.99764114E-01 -1.06947215E-01  1.05291315E-05
  7.99764114E-01 -1.06947215E-01  1.05291315E-05 -3.55136882E+00  1.01072618E+00
 -5.92610625E-06 -3.55136882E+00  1.01072618E+00 -5.92610625E-06 -3.55136882E+00
  1.01072618E+00 -5.92610625E-06 -3.55136882E+00  1.01072618E+00 -5.92610625E-06
 -2.78581992E-01  4.54230807E+00 -1.92656635E-06 -2.78581992E-01  4.54230807E+00
 -1.92656635E-06 -2.78581992E-01  4.54230807E+00 -1.92656635E-06 -2.78581992E-01
  4.54230807E+00 -1.92656635E-06 -4.11693018E+00 -1.57540003E+00 -5.14860718E-06
 -4.11693018E+00 -1.57540003E+00 -5.14860718E-06 -4.11693018E+00 -1.57540003E+00
 -5.14860718E-06 -4.11693018E+00 -1.57540003E+00 -5.14860718E-06 -2.12915721E+00
 -3.28439335E+00  1.19118957E-06 -2.12915721E+00 -3.28439335E+00  1.19118957E-06
 -2.12915721E+00 -3.28439335E+00  1.19118957E-06 -2.12915721E+00 -3.28439335E+00
  1.19118957E-06  5.12251739E+00 -1.24859820E+00 -1.75838154E-05  5.12251739E+00
 -1.24859820E+00 -1.75838154E-05  5.12251739E+00 -1.24859820E+00 -1.75838154E-05
  5.12251739E+00 -1.24859820E+00 -1.75838154E-05 -5.06256642E+00  2.40686155E+00
 -1.44123145E-05 -5.06256642E+00  2.40686155E+00 -1.44123145E-05 -1.94056038E+00
  5.76938570E+00 -3.49039479E-05 -1.94056038E+00  5.76938570E+00 -3.49039479E-05
  8.71838644E-01  4.97809326E+00  1.66126170E+00  8.71838644E-01  4.97809326E+00
  1.66126170E+00  8.71892812E-01  4.97807525E+00 -1.66123244E+00  8.71892812E-01
  4.97807525E+00 -1.66123244E+00 -6.05919787E+00 -2.23780950E+00 -9.51997291E-06
 -6.05919787E+00 -2.23780950E+00 -9.51997291E-06 -2.46601636E+00 -5.31315815E+00
  1.25878323E-06 -2.46601636E+00 -5.31315815E+00  1.25878323E-06  4.94995628E+00
 -2.43669903E+00 -1.67829100E+00  4.94995628E+00 -2.43669903E+00 -1.67829100E+00
  4.95004668E+00 -2.43667112E+00  1.67828594E+00  4.95004668E+00 -2.43667112E+00
  1.67828594E+00  6.91983243E+00 -2.43966191E-01 -7.19424364E-05  6.91983243E+00
 -2.43966191E-01 -7.19424364E-05
Constraint Structure                       R   N=          54
  3.24138886E+00  7.04763730E-01  1.79128623E-05  3.23558747E-01 -2.57401344E+00
  1.07438696E-05 -1.05145129E+00  1.81494997E+00  0.00000000E+00  7.99764114E-01
 -1.06947215E-01  1.05291315E-05 -3.55136882E+00  1.01072618E+00 -5.92610625E-06
 -2.78581992E-01  4.54230807E+00 -1.92656635E-06 -4.11693018E+00 -1.57540003E+00
 -5.14860718E-06 -2.12915721E+00 -3.28439335E+00  1.19118957E-06  5.12251739E+00
 -1.24859820E+00 -1.75838154E-05 -5.06256642E+00  2.40686155E+00 -1.44123145E-05
 -1.94056038E+00  5.76938570E+00 -3.49039479E-05  8.71838644E-01  4.97809326E+00
  1.66126170E+00  8.71892812E-01  4.97807525E+00 -1.66123244E+00 -6.05919787E+00
 -2.23780950E+00 -9.51997291E-06 -2.46601636E+00 -5.31315815E+00  1.25878323E-06
  4.94995628E+00 -2.43669903E+00 -1.67829100E+00  4.95004668E+00 -2.43667112E+00
  1.67828594E+00  6.91983243E+00 -2.43966191E-01 -7.19424364E-05
Num ILSW                                   I              100
ILSW                                       I   N=         100
           0           1           0           0           2           0
           0           0           0           0           0          -1
           0           0           0           0           0           0
           0           0           0           0           1           0
           1           0           0           0           0           0
           0           0      100000           0          -1           0
           0           0           0           0           0           0
           0           0           0           1           1           0
           0           0           1           0           0           0
           0           0           4          40           0           0
           0           0           0           0           0           0
           0           0           0           0           0           0
           0           0           0           0           0           0
           0           0           0           0           0           0
           0           0           0           0           0           0
           0           0           0           0           0           0
           0           0           0           0
Num RLSW                                   I               40
RLSW                                       R   N=          40
  1.00000000E+00  1.00000000E+00  1.00000000E+00  1.00000000E+00  1.00000000E+00
  0.00000000E+00  0.00000000E+00  1.00000000E+00  0.00000000E+00  0.00000000E+00
  0.00000000E+00  0.00000000E+00  1.00000000E+00  0.00000000E+00  0.00000000E+00
  0.00000000E+00  0.00000000E+00  1.00000000E+00  0.00000000E+00  0.00000000E+00
  0.00000000E+00  0.00000000E+00  1.00000000E+00  0.00000000E+00  0.00000000E+00
  0.00000000E+00  0.00000000E+00  1.00000000E+00  0.00000000E+00  0.00000000E+00
  0.00000000E+00  0.00000000E+00  0.00000000E+00  0.00000000E+00  0.00000000E+00
  0.00000000E+00  0.00000000E+00  0.00000000E+00  1.00000000E+00  1.00000000E+00
MxBond                                     I                4
NBond                                      I   N=          18
           2           2           3           3           3           4
           3           3           4           1           1           1
           1           1           1           1           1           1
IBond                                      I   N=          72
           4           9           0           0           4           8
           0           0           4           5           6           0
           1           2           3           0           3           7
          10           0           3          11          12          13
           5           8          14           0           2           7
          15           0           1          16          17          18
           5           0           0           0           6           0
           0           0           6           0           0           0
           6           0           0           0           7           0
           0           0           8           0           0           0
           9           0           0           0           9           0
           0           0           9           0           0           0
RBond                                      R   N=          72
  1.50000000E+00  1.00000000E+00  0.00000000E+00  0.00000000E+00  1.50000000E+00
  1.50000000E+00  0.00000000E+00  0.00000000E+00  1.50000000E+00  1.50000000E+00
  1.00000000E+00  0.00000000E+00  1.50000000E+00  1.50000000E+00  1.50000000E+00
  0.00000000E+00  1.50000000E+00  1.50000000E+00  1.00000000E+00  0.00000000E+00
  1.00000000E+00  1.00000000E+00  1.00000000E+00  1.00000000E+00  1.50000000E+00
  1.50000000E+00  1.00000000E+00  0.00000000E+00  1.50000000E+00  1.50000000E+00
  1.00000000E+00  0.00000000E+00  1.00000000E+00  1.00000000E+00  1.00000000E+00
  1.00000000E+00  1.00000000E+00  0.00000000E+00  0.00000000E+00  0.00000000E+00
  1.00000000E+00  0.00000000E+00  0.00000000E+00  0.00000000E+00  1.00000000E+00
  0.00000000E+00  0.00000000E+00  0.00000000E+00  1.00000000E+00  0.00000000E+00
  0.00000000E+00  0.00000000E+00  1.00000000E+00  0.00000000E+00  0.00000000E+00
  0.00000000E+00  1.00000000E+00  0.00000000E+00  0.00000000E+00  0.00000000E+00
  1.00000000E+00  0.00000000E+00  0.00000000E+00  0.00000000E+00  1.00000000E+00
  0.00000000E+00  0.00000000E+00  0.00000000E+00  1.00000000E+00  0.00000000E+00
  0.00000000E+00  0.00000000E+00
Virial Ratio                               R      2.002362988755872E+00
SCF Energy                                 R     -3.996250414505498E+02
MP2 Energy                                 R     -4.008567368233092E+02
Total Energy                               R     -4.008567368233092E+02
Post-SCF wavefunction norm                 R      1.684939373129921E+00
RMS Force                                  R      1.550039368007034E-06
RMS Density                                R      1.458792803591716E-09
External E-field                           R   N=          35
  0.00000000E+00  0.00000000E+00  0.00000000E+00  0.00000000E+00  0.00000000E+00
  0.00000000E+00  0.00000000E+00  0.00000000E+00  0.00000000E+00  0.00000000E+00
  0.00000000E+00  0.00000000E+00  0.00000000E+00  0.00000000E+00  0.00000000E+00
  0.00000000E+00  0.00000000E+00  0.00000000E+00  0.00000000E+00  0.00000000E+00
  0.00000000E+00  0.00000000E+00  0.00000000E+00  0.00000000E+00  0.00000000E+00
  0.00000000E+00  0.00000000E+00  0.00000000E+00  0.00000000E+00  0.00000000E+00
  0.00000000E+00  0.00000000E+00  0.00000000E+00  0.00000000E+00  0.00000000E+00
IOpCl                                      I                0
IROHF                                      I                0
Alpha Orbital Energies                     R   N=         153
 -2.05894808E+01 -1.55603853E+01 -1.13307225E+01 -1.12735225E+01 -1.12734741E+01
 -1.12541980E+01 -1.12406481E+01 -1.12305905E+01 -1.12227542E+01 -1.41083097E+00
 -1.24136221E+00 -1.09656947E+00 -1.03747073E+00 -9.53183822E-01 -9.32764689E-01
 -8.32678142E-01 -8.21605736E-01 -7.16225547E-01 -6.84377870E-01 -6.48952250E-01
 -6.45537314E-01 -6.01112646E-01 -5.86705016E-01 -5.73675242E-01 -5.57256097E-01
 -5.44247849E-01 -5.25493799E-01 -5.24700481E-01 -4.97337278E-01 -4.71414256E-01
 -4.17255517E-01 -3.71640566E-01 -3.10779975E-01  1.29072845E-01  1.55141299E-01
  2.45621814E-01  2.65695795E-01  2.71405041E-01  3.01236784E-01  3.14196693E-01
  3.19203202E-01  3.19864047E-01  3.22687832E-01  3.38232753E-01  3.51767859E-01
  3.89990941E-01  4.12031587E-01  4.29254823E-01  4.89023807E-01  5.23764905E-01
  5.27569722E-01  5.54830068E-01  6.42710134E-01  6.80027407E-01  7.31394105E-01
  7.48692650E-01  7.53823309E-01  7.58174727E-01  7.78318007E-01  7.80478023E-01
  8.06662944E-01  8.18381589E-01  8.37833961E-01  8.51799764E-01  8.72096273E-01
  8.75149865E-01  9.03602802E-01  9.23502533E-01  9.38610347E-01  9.69698469E-01
  9.99877103E-01  1.02538642E+00  1.08844927E+00  1.10908560E+00  1.11043388E+00
  1.12484191E+00  1.14814479E+00  1.15001991E+00  1.15735219E+00  1.17746779E+00
  1.18620892E+00  1.19055852E+00  1.20991590E+00  1.23380715E+00  1.23735061E+00
  1.26960214E+00  1.28364908E+00  1.33460295E+00  1.35690575E+00  1.35864571E+00
  1.40449756E+00  1.45205836E+00  1.50190753E+00  1.56636925E+00  1.61334470E+00
  1.65165018E+00  1.65629324E+00  1.67830186E+00  1.72631154E+00  1.72684587E+00
  1.74753722E+00  1.78992104E+00  1.81346350E+00  1.85189376E+00  1.95544287E+00
  1.98077726E+00  2.07750643E+00  2.11258809E+00  2.12705978E+00  2.15755689E+00
  2.16653015E+00  2.19961749E+00  2.26265272E+00  2.28010995E+00  2.31235836E+00
  2.35337423E+00  2.41180860E+00  2.43868229E+00  2.45130412E+00  2.50219619E+00
  2.51527431E+00  2.52879587E+00  2.54595122E+00  2.60974092E+00  2.61493657E+00
  2.63071707E+00  2.63767504E+00  2.67260664E+00  2.67626979E+00  2.75542165E+00
  2.76337969E+00  2.86827647E+00  2.91700836E+00  2.96973567E+00  3.00861788E+00
  3.05304833E+00  3.05350229E+00  3.09172813E+00  3.12885561E+00  3.20173727E+00
  3.31386441E+00  3.35538285E+00  3.60073495E+00  3.80020558E+00  4.45710338E+00
  4.50670203E+00  4.57589838E+00  4.62927984E+00  4.66582120E+00  4.74790606E+00
  4.83021097E+00  4.91740319E+00  5.09352027E+00
Alpha MO coefficients                      R   N=       23409
  9.94640052E-01  2.12171287E-02 -3.81603298E-04 -1.22084298E-03 -1.60477459E-08
  4.00918261E-03 -1.86430523E-05  8.82676450E-04  9.05812546E-09 -4.19365997E-03
 -4.13615364E-03 -3.90651996E-03  6.82478384E-05  2.38931753E-09 -4.81656378E-09
  2.80689006E-06  3.19805842E-05 -1.13128687E-05 -2.70751524E-05 -1.29813332E-12
 -4.48677192E-04 -3.13073318E-04 -2.60520899E-04  1.34809344E-10 -2.14578426E-05
 -3.13929575E-05 -1.31539211E-05 -7.40864489E-05 -5.71595272E-11  1.42142654E-10
 -1.33591112E-05 -2.93418466E-05 -1.92895038E-05  6.34295305E-06 -3.43183501E-10
  1.16555105E-03  5.82201270E-04 -1.89281152E-04  7.24042582E-09 -8.32117999E-05
  7.47337640E-06 -3.60201921E-05  2.51759418E-05 -7.43288545E-11  6.07684939E-12
  3.53031774E-06  4.03161529E-04  3.12982120E-04  9.51553234E-05  1.51371138E-09
 -5.63772001E-04  3.06150490E-04 -1.10831275E-03 -3.15712923E-09 -4.91571744E-05
  1.05404539E-05 -5.03844134E-05 -2.56513365E-05 -1.71480699E-10 -1.77731578E-10
  3.43979067E-06  1.40706587E-05  2.33957750E-06  5.83839953E-06 -4.06718407E-11
 -1.02328741E-04  1.08365156E-05  1.82633028E-04 -1.56913541E-09  9.09726152E-06
  1.22956436E-05  3.72100023E-06  1.74872921E-05 -2.45274128E-10 -5.01640818E-11
  1.29565153E-05  6.44949398E-05  5.75653625E-05 -2.69932839E-05  1.50883933E-09
 -2.71007919E-04 -3.04914601E-04  3.43902847E-04 -9.69871190E-09  3.99923790E-05
 -9.15693613E-06  2.98706888E-06 -6.86361153E-06  8.77813533E-10 -2.41388230E-10
 -3.04619918E-06 -1.04887869E-05 -4.89384277E-06 -5.74870385E-07 -1.05484446E-10
  1.81171588E-04  8.52679274E-05  1.25821678E-04  7.03716230E-10 -3.14293260E-06
 -9.21864345E-06 -5.81017339E-06  4.19092216E-06  2.61696583E-11  6.66698616E-11
 -7.90498339E-07  3.90023277E-07  7.56578366E-06 -4.01210342E-06 -6.88195767E-11
 -2.14500893E-04 -1.34057222E-04 -5.03843925E-05 -5.99584441E-10  1.84123887E-05
 -9.91544266E-06 -1.64507150E-06 -6.00407545E-06  6.50831125E-11  1.11320833E-11
 -1.06692049E-05  2.15126200E-04 -2.91892271E-04  3.17243403E-04  5.80463573E-09
  1.20768823E-04 -1.55638465E-05 -2.38159770E-04 -3.07803465E-09  6.45125027E-05
  3.83792599E-05 -1.99368814E-05 -1.22712306E-04 -1.34639792E-09  2.83643034E-09
 -7.22577063E-06 -6.43305766E-06 -2.64944701E-05 -1.99617646E-04  7.63692236E-05
 -1.45505742E-05  7.63704217E-05 -1.45593229E-05  3.57281316E-06  3.37327000E-05
  3.63170541E-06 -7.83905966E-06 -4.04026789E-05 -1.28122741E-04 -4.04009381E-05
 -1.28118315E-04  1.10427194E-05 -4.64986215E-05 -4.48913550E-05 -2.42803583E-04