075_CHF3 Gaussian SP Calculation on g2-node38.bme.utexas.edu            
Freq      RMP2-FC                                                     6-31G(d)            
Number of atoms                            I                5
Info1-9                                    I   N=           9
          16          15        1002           0           0         100
           6           2           1
Charge                                     I                0
Multiplicity                               I                1
Number of electrons                        I               34
Number of alpha electrons                  I               17
Number of beta electrons                   I               17
Number of basis functions                  I               62
Number of independent functions            I               62
Number of point charges in /Mol/           I                0
Number of translation vectors              I                0
Atomic numbers                             I   N=           5
           9           9           9           6           1
Nuclear charges                            R   N=           5
  9.00000000E+00  9.00000000E+00  9.00000000E+00  6.00000000E+00  1.00000000E+00
Current cartesian coordinates              R   N=          15
  2.04402499E+00 -1.21963773E+00 -2.43444505E-01 -2.07829021E+00 -1.16029349E+00
 -2.43443476E-01  3.42628708E-02  2.37993498E+00 -2.43450902E-01  3.31072412E-06
 -2.00590951E-05  6.45092964E-01  1.21216210E-06  8.64612613E-05  2.70249216E+00
Force Field                                I                0
Int Atom Types                             I   N=           5
           0           0           0           0           0
MM charges                                 R   N=           5
  0.00000000E+00  0.00000000E+00  0.00000000E+00  0.00000000E+00  0.00000000E+00
Integer atomic weights                     I   N=           5
          19          19          19          12           1
Real atomic weights                        R   N=           5
  1.89984032E+01  1.89984032E+01  1.89984032E+01  1.20000000E+01  1.00782504E+00
Atom fragment info                         I   N=           5
           0           0           0           0           0
Atom residue num                           I   N=           5
           0           0           0           0           0
Nuclear spins                              I   N=           5
           1           1           1           0           1
Nuclear ZEff                               R   N=           5
 -6.75000000E+00 -6.75000000E+00 -6.75000000E+00 -3.60000000E+00 -1.00000000E+00
Nuclear QMom                               R   N=           5
  0.00000000E+00  0.00000000E+00  0.00000000E+00  0.00000000E+00  0.00000000E+00
Nuclear GFac                               R   N=           5
  2.62886700E+00  2.62886700E+00  2.62886700E+00  0.00000000E+00  2.79284600E+00
MicOpt                                     I   N=           5
          -1          -1          -1          -1          -1
Number of contracted shells                I               18
Number of primitive shells                 I               48
Pure/Cartesian d shells                    I                1
Pure/Cartesian f shells                    I                0
Highest angular momentum                   I                2
Largest degree of contraction              I                6
Shell types                                I   N=          18
           0          -1          -1           2           0          -1
          -1           2           0          -1          -1           2
           0          -1          -1           2           0           0
Number of primitives per shell             I   N=          18
           6           3           1           1           6           3
           1           1           6           3           1           1
           6           3           1           1           3           1
Shell to atom map                          I   N=          18
           1           1           1           1           2           2
           2           2           3           3           3           3
           4           4           4           4           5           5
Primitive exponents                        R   N=          48
  7.00171309E+03  1.05136609E+03  2.39285690E+02  6.73974453E+01  2.15199573E+01
  7.40310130E+00  2.08479528E+01  4.80830834E+00  1.34406986E+00  3.58151393E-01
  8.00000000E-01  7.00171309E+03  1.05136609E+03  2.39285690E+02  6.73974453E+01
  2.15199573E+01  7.40310130E+00  2.08479528E+01  4.80830834E+00  1.34406986E+00
  3.58151393E-01  8.00000000E-01  7.00171309E+03  1.05136609E+03  2.39285690E+02
  6.73974453E+01  2.15199573E+01  7.40310130E+00  2.08479528E+01  4.80830834E+00
  1.34406986E+00  3.58151393E-01  8.00000000E-01  3.04752488E+03  4.57369518E+02
  1.03948685E+02  2.92101553E+01  9.28666296E+00  3.16392696E+00  7.86827235E+00
  1.88128854E+00  5.44249258E-01  1.68714478E-01  8.00000000E-01  1.87311370E+01
  2.82539436E+00  6.40121692E-01  1.61277759E-01
Contraction coefficients                   R   N=          48
  1.81961690E-03  1.39160796E-02  6.84053245E-02  2.33185760E-01  4.71267439E-01
  3.56618546E-01 -1.08506975E-01 -1.46451658E-01  1.12868858E+00  1.00000000E+00
  1.00000000E+00  1.81961690E-03  1.39160796E-02  6.84053245E-02  2.33185760E-01
  4.71267439E-01  3.56618546E-01 -1.08506975E-01 -1.46451658E-01  1.12868858E+00
  1.00000000E+00  1.00000000E+00  1.81961690E-03  1.39160796E-02  6.84053245E-02
  2.33185760E-01  4.71267439E-01  3.56618546E-01 -1.08506975E-01 -1.46451658E-01
  1.12868858E+00  1.00000000E+00  1.00000000E+00  1.83473713E-03  1.40373228E-02
  6.88426223E-02  2.32184443E-01  4.67941348E-01  3.62311985E-01 -1.19332420E-01
 -1.60854152E-01  1.14345644E+00  1.00000000E+00  1.00000000E+00  3.34946043E-02
  2.34726953E-01  8.13757326E-01  1.00000000E+00
P(S=P) Contraction coefficients            R   N=          48
  0.00000000E+00  0.00000000E+00  0.00000000E+00  0.00000000E+00  0.00000000E+00
  0.00000000E+00  7.16287242E-02  3.45912103E-01  7.22469956E-01  1.00000000E+00
  0.00000000E+00  0.00000000E+00  0.00000000E+00  0.00000000E+00  0.00000000E+00
  0.00000000E+00  0.00000000E+00  7.16287242E-02  3.45912103E-01  7.22469956E-01
  1.00000000E+00  0.00000000E+00  0.00000000E+00  0.00000000E+00  0.00000000E+00
  0.00000000E+00  0.00000000E+00  0.00000000E+00  7.16287242E-02  3.45912103E-01
  7.22469956E-01  1.00000000E+00  0.00000000E+00  0.00000000E+00  0.00000000E+00
  0.00000000E+00  0.00000000E+00  0.00000000E+00  0.00000000E+00  6.89990666E-02
  3.16423961E-01  7.44308291E-01  1.00000000E+00  0.00000000E+00  0.00000000E+00
  0.00000000E+00  0.00000000E+00  0.00000000E+00
Coordinates of each shell                  R   N=          54
  2.04402499E+00 -1.21963773E+00 -2.43444505E-01  2.04402499E+00 -1.21963773E+00
 -2.43444505E-01  2.04402499E+00 -1.21963773E+00 -2.43444505E-01  2.04402499E+00
 -1.21963773E+00 -2.43444505E-01 -2.07829021E+00 -1.16029349E+00 -2.43443476E-01
 -2.07829021E+00 -1.16029349E+00 -2.43443476E-01 -2.07829021E+00 -1.16029349E+00
 -2.43443476E-01 -2.07829021E+00 -1.16029349E+00 -2.43443476E-01  3.42628708E-02
  2.37993498E+00 -2.43450902E-01  3.42628708E-02  2.37993498E+00 -2.43450902E-01
  3.42628708E-02  2.37993498E+00 -2.43450902E-01  3.42628708E-02  2.37993498E+00
 -2.43450902E-01  3.31072412E-06 -2.00590951E-05  6.45092964E-01  3.31072412E-06
 -2.00590951E-05  6.45092964E-01  3.31072412E-06 -2.00590951E-05  6.45092964E-01
  3.31072412E-06 -2.00590951E-05  6.45092964E-01  1.21216210E-06  8.64612613E-05
  2.70249216E+00  1.21216210E-06  8.64612613E-05  2.70249216E+00
Constraint Structure                       R   N=          15
  2.04402499E+00 -1.21963773E+00 -2.43444505E-01 -2.07829021E+00 -1.16029349E+00
 -2.43443476E-01  3.42628708E-02  2.37993498E+00 -2.43450902E-01  3.31072412E-06
 -2.00590951E-05  6.45092964E-01  1.21216210E-06  8.64612613E-05  2.70249216E+00
Num ILSW                                   I              100
ILSW                                       I   N=         100
           0           1           0           0           2           0
           0           0           0           0           0          -1
           0           0           0           0           0           0
           0           0           0           0           1           0
           1           0           0           0           0           0
           0           0      100000           0          -1           0
           0           0           0           0           0           0
           0           0           0           1           1           0
           0           0           1           0           0           0
           0           0           4          40           0           0
           0           0           0           0           0           0
           0           0           0           0           0           0
           0           0           0           0           0           0
           0           0           0           0           0           0
           0           0           0           0           0           0
           0           0           0           0           0           0
           0           0           0           0
Num RLSW                                   I               40
RLSW                                       R   N=          40
  1.00000000E+00  1.00000000E+00  1.00000000E+00  1.00000000E+00  1.00000000E+00
  0.00000000E+00  0.00000000E+00  1.00000000E+00  0.00000000E+00  0.00000000E+00
  0.00000000E+00  0.00000000E+00  1.00000000E+00  0.00000000E+00  0.00000000E+00
  0.00000000E+00  0.00000000E+00  1.00000000E+00  0.00000000E+00  0.00000000E+00
  0.00000000E+00  0.00000000E+00  1.00000000E+00  0.00000000E+00  0.00000000E+00
  0.00000000E+00  0.00000000E+00  1.00000000E+00  0.00000000E+00  0.00000000E+00
  0.00000000E+00  0.00000000E+00  0.00000000E+00  0.00000000E+00  0.00000000E+00
  0.00000000E+00  0.00000000E+00  0.00000000E+00  1.00000000E+00  1.00000000E+00
MxBond                                     I                4
NBond                                      I   N=           5
           1           1           1           4           1
IBond                                      I   N=          20
           4           0           0           0           4           0
           0           0           4           0           0           0
           1           2           3           5           4           0
           0           0
RBond                                      R   N=          20
  1.00000000E+00  0.00000000E+00  0.00000000E+00  0.00000000E+00  1.00000000E+00
  0.00000000E+00  0.00000000E+00  0.00000000E+00  1.00000000E+00  0.00000000E+00
  0.00000000E+00  0.00000000E+00  1.00000000E+00  1.00000000E+00  1.00000000E+00
  1.00000000E+00  1.00000000E+00  0.00000000E+00  0.00000000E+00  0.00000000E+00
Virial Ratio                               R      2.002616296998659E+00
SCF Energy                                 R     -3.367689535846650E+02
MP2 Energy                                 R     -3.374070915075141E+02
Total Energy                               R     -3.374070915075141E+02
Post-SCF wavefunction norm                 R      1.516555876763493E+00
RMS Force                                  R      6.621032513078657E-06
RMS Density                                R      1.775089732569293E-09
External E-field                           R   N=          35
  0.00000000E+00  0.00000000E+00  0.00000000E+00  0.00000000E+00  0.00000000E+00
  0.00000000E+00  0.00000000E+00  0.00000000E+00  0.00000000E+00  0.00000000E+00
  0.00000000E+00  0.00000000E+00  0.00000000E+00  0.00000000E+00  0.00000000E+00
  0.00000000E+00  0.00000000E+00  0.00000000E+00  0.00000000E+00  0.00000000E+00
  0.00000000E+00  0.00000000E+00  0.00000000E+00  0.00000000E+00  0.00000000E+00
  0.00000000E+00  0.00000000E+00  0.00000000E+00  0.00000000E+00  0.00000000E+00
  0.00000000E+00  0.00000000E+00  0.00000000E+00  0.00000000E+00  0.00000000E+00
IOpCl                                      I                0
IROHF                                      I                0
Alpha Orbital Energies                     R   N=          62
 -2.63431080E+01 -2.63431050E+01 -2.63430787E+01 -1.15115013E+01 -1.72177786E+00
 -1.62967983E+00 -1.62967653E+00 -9.82603043E-01 -8.36963802E-01 -8.13536277E-01
 -8.13532096E-01 -7.00860278E-01 -7.00857655E-01 -6.58054236E-01 -6.58050900E-01
 -6.42928173E-01 -5.91989355E-01  2.59772289E-01  3.45059679E-01  3.45067858E-01
  4.37175841E-01  6.95824161E-01  6.95829170E-01  7.05482823E-01  9.05356953E-01
  1.03452044E+00  1.32374684E+00  1.32374764E+00  1.35278157E+00  1.35279236E+00
  1.43246915E+00  1.63107272E+00  1.63107719E+00  1.63346459E+00  1.66276959E+00
  1.66277967E+00  1.70230249E+00  1.89537289E+00  1.89538045E+00  1.97049276E+00
  2.07940692E+00  2.07942326E+00  2.11333670E+00  2.13477534E+00  2.13478198E+00
  2.32217335E+00  2.32222798E+00  2.32831410E+00  2.36359879E+00  2.46479151E+00
  2.57242424E+00  2.57243066E+00  2.95348912E+00  3.00027073E+00  3.00027281E+00
  3.35076016E+00  3.37671031E+00  3.37674044E+00  4.47994470E+00  4.47995499E+00
  4.67497759E+00  5.33743100E+00
Alpha MO coefficients                      R   N=        3844
  7.85769950E-01  1.39997595E-02 -6.05609083E-04  3.56237927E-04  2.63748202E-04
  6.56509673E-03  3.30516949E-04 -2.15658886E-04 -1.64855916E-04 -3.81830380E-03
 -3.70360386E-03 -3.66584160E-03  1.63730899E-04  1.21751506E-04 -7.30429580E-05
 -5.96101477E-01 -1.06078657E-02 -4.69809417E-04 -2.52517375E-04 -1.99983970E-04
 -5.01984168E-03  2.31928455E-04  1.64774247E-04  1.23954282E-04  2.88567779E-03
  2.82442111E-03  2.78827221E-03  1.29563212E-04  9.28218639E-05  5.25826961E-05
 -1.26832198E-01 -2.25138264E-03 -1.12719282E-05  1.13784094E-04 -4.25079604E-05
 -1.08569709E-03 -4.74251443E-05 -5.22005576E-05  2.58805237E-05  5.87688472E-04
  6.28949113E-04  5.96516126E-04  5.80755966E-05 -1.32877259E-06 -2.22205637E-05
 -4.89630211E-07  1.81083911E-05  6.20064064E-04 -1.24110683E-04 -1.67577211E-05
  1.37960431E-05 -1.46258707E-04  2.92725817E-05 -3.70922266E-06  2.92358791E-05
 -1.09300170E-05  5.01611476E-07 -1.49049538E-04 -1.40662820E-04  2.81523062E-05
 -1.16365554E-06 -4.69159501E-06 -3.10543750E-01 -5.54450770E-03  2.31892246E-04
 -1.52749644E-04 -1.04326579E-04 -2.55820011E-03 -1.69660096E-04  4.91872925E-05
  6.61741220E-05  1.55662942E-03  1.41255027E-03  1.44204099E-03 -3.84678583E-05
 -4.94989311E-05  2.84082927E-05 -5.69690165E-01 -1.01592468E-02 -4.39743658E-04
 -2.56873307E-04 -1.91289752E-04 -4.73075432E-03  2.77620785E-04  1.13825125E-04
  1.20334920E-04  2.81715716E-03  2.63345860E-03  2.65239879E-03  8.78540306E-05
  9.09206688E-05  4.98672463E-05  7.53574067E-01  1.34047929E-02 -1.21261494E-05
 -6.74230077E-04  2.52780667E-04  6.36274049E-03 -3.70527648E-06  3.50676134E-04
 -1.56240685E-04 -3.47039786E-03 -3.74975914E-03 -3.52795466E-03  6.11789350E-06
  1.74584956E-06  1.34410907E-04  9.88260793E-07 -3.64600599E-05  1.25519991E-04
  6.18463671E-04  3.37740766E-05 -2.78211308E-05 -2.96052043E-05 -1.45861499E-04
  7.50506227E-06 -1.47237068E-04  1.10288302E-04 -1.01982752E-06 -2.35471957E-05
 -2.84763022E-05 -1.40294860E-04  2.33871077E-06  9.44277254E-06  5.24420982E-01
  9.53483162E-03 -3.99129085E-04  2.37262406E-04  1.77517738E-04  3.78453805E-03
  4.36904013E-04 -2.63847303E-04 -1.26804514E-04 -2.55371240E-03 -2.40863071E-03
 -2.33623361E-03  1.62242682E-04  9.47501918E-05 -5.66055197E-05  5.55882496E-01
  1.00950805E-02  4.30503673E-04  2.39131876E-04  1.88073483E-04  4.04829120E-03
 -4.57260906E-04 -2.59602921E-04 -1.33379008E-04 -2.71449276E-03 -2.54910467E-03
 -2.48317430E-03 -1.63738197E-04 -1.01272221E-04 -5.66335763E-05  6.36340238E-01
  1.15278223E-02 -7.82997602E-06 -5.64363587E-04  2.15078788E-04  4.72287590E-03
  9.19833545E-06  5.65142197E-04 -1.50195496E-04 -2.83768900E-03 -3.19636201E-03
 -2.85898436E-03 -7.26970042E-06  1.90118546E-06  1.30495616E-04 -1.33818794E-05
  4.94611375E-04 -1.34340965E-05  5.01875059E-05 -4.57782761E-04  3.76721696E-04
  3.16599538E-06 -1.18409880E-05 -1.01162437E-04  2.39846501E-04  2.60280214E-04
  1.37236165E-05  3.72036936E-06  3.04983349E-06 -1.13771975E-05 -3.18253368E-05
 -1.28237844E-04 -7.48131677E-05  5.76628887E-04 -3.00888955E-04  1.79522598E-04
  1.05129494E-04 -1.19424935E-03  1.30995792E-03 -7.81582762E-04 -2.91867237E-04
 -3.71453982E-04  1.23141401E-04  2.71287120E-04  5.29147673E-04  2.57858125E-04
 -1.53862704E-04 -7.48128546E-05  5.76611367E-04  3.05931138E-04  1.70785087E-04
  1.05128115E-04 -1.19417544E-03 -1.33188986E-03 -7.43530714E-04 -2.91854888E-04
 -3.97425426E-04  1.49095647E-04  2.71277054E-04 -5.11834687E-04 -2.62178746E-04
 -1.46374623E-04 -7.48421405E-05  5.76505565E-04 -5.04264152E-06 -3.50327881E-04
  1.05132665E-04 -1.19386249E-03  2.19520965E-05  1.52514038E-03 -2.91842671E-04
  3.96255677E-04 -6.44675909E-04  2.71188660E-04 -1.73060084E-05  4.32151212E-06
  3.00208010E-04  9.96107693E-01  2.41951515E-02  1.97199846E-08  2.37560878E-09
 -1.80498518E-03 -4.91970058E-03  1.36884444E-08 -1.44295990E-07 -1.44098711E-03
 -3.95784782E-04 -3.95891191E-04 -9.53120345E-04 -1.27759278E-08 -9.91597749E-09
  2.90201080E-09  4.76560873E-05  2.08570715E-03 -1.20298234E-01  2.75825651E-01
 -4.59983768E-02  2.74476621E-02  1.53952175E-02  2.42562869E-01 -3.29866462E-02
  1.96825236E-02  1.03770365E-02  1.97719898E-02  1.27281016E-02  1.08713866E-02
 -7.53557940E-03 -4.74393278E-03  2.83060015E-03 -1.20293400E-01  2.75814069E-01
  4.67680118E-02  2.61110477E-02  1.53943963E-02  2.42554271E-01  3.35390726E-02
  1.87243651E-02  1.03766951E-02  2.01410089E-02  1.23577111E-02  1.08707511E-02
  7.28893933E-03  4.82336153E-03  2.69279237E-03 -1.20307100E-01  2.75846551E-01
 -7.70873814E-04 -5.35642375E-02  1.53973255E-02  2.42578506E-01 -5.52832273E-04
 -3.84095064E-02  1.03780677E-02  8.83840978E-03  2.36637794E-02  1.08727065E-02
  2.46470643E-04 -7.95049989E-05 -5.52391861E-03 -9.17583088E-02  1.74619059E-01
  2.48360826E-06  9.39647013E-06 -5.32389073E-02  8.55913694E-03  9.59938437E-08
 -5.71875119E-07  1.29478333E-02  3.93345078E-03  3.93486611E-03 -8.43914405E-03
 -4.92651458E-07 -4.39435818E-07 -1.61236920E-06  2.34165333E-02  1.38311142E-03
 -1.79720363E-01  4.22889620E-01 -3.49685769E-02  2.44933860E-02  2.04898723E-02
  3.49501645E-01 -2.02642429E-02  1.37379349E-02  1.20394313E-02  2.51788093E-02
  2.11355298E-02  2.00643417E-02 -4.73589627E-03 -3.52394332E-03  2.26448326E-03
  1.29579594E-01 -3.04906263E-01 -2.24106377E-02 -2.28383782E-02 -1.47731548E-02
 -2.51992880E-01 -1.33920475E-02 -1.21634288E-02 -8.68057564E-03 -1.80100107E-02
 -1.53829433E-02 -1.44665802E-02 -3.53409688E-03 -2.43964453E-03 -1.82251068E-03
  5.01416719E-02 -1.17985483E-01  1.23042770E-02  1.17041492E-02 -5.71701692E-03
 -9.75098413E-02  5.60469034E-03  6.73900590E-03 -3.35910711E-03 -5.20540664E-03
 -7.71628790E-03 -5.59797004E-03 -8.00079970E-04  5.57784295E-04  1.16010707E-03
  3.52730336E-07 -6.69676820E-07  1.23036483E-01 -3.64662699E-02  1.38763387E-07
 -2.01154887E-07  4.96342976E-03 -1.47105035E-03  2.48623176E-07  4.94188808E-03
 -4.94197863E-03 -6.65373820E-08 -2.28265842E-02 -1.82050391E-02  5.39574349E-03
 -4.28957663E-07 -2.12699538E-07  4.58696744E-02 -1.07932664E-01  1.55893724E-02
  4.91829889E-03 -5.22951689E-03 -8.92045281E-02  8.19759514E-03  1.56262555E-03
 -3.07270380E-03 -7.04582106E-03 -4.77480179E-03 -5.12061988E-03  8.22962634E-04
  1.19655243E-03 -7.98841571E-05  1.32716988E-01 -3.12287958E-01 -3.17462156E-02
 -7.63951712E-03 -1.51306836E-02 -2.58096711E-01 -1.77081653E-02 -5.30945389E-03
 -8.89057425E-03 -1.92771100E-02 -1.49242033E-02 -1.48163910E-02 -3.02834411E-03
 -2.89073675E-03 -1.16424230E-03 -1.78568839E-01  4.20180414E-01  2.79795082E-03
 -4.23514908E-02  2.03597807E-02  3.47260188E-01  1.19668446E-03 -2.43030036E-02
  1.19626318E-02  1.84654964E-02  2.75522981E-02  1.99360961E-02 -6.18697381E-05
  9.20254043E-05 -4.16128376E-03  2.52374131E-06 -5.00658262E-06  3.64651917E-02
  1.23036860E-01  9.32167134E-07 -4.51338795E-08  1.47109507E-03  4.96347326E-03
 -1.33934211E-06 -1.97699358E-02  1.97698713E-02  4.82746889E-07 -5.70574464E-03
 -5.39551674E-03 -1.82050562E-02  1.89577779E-07  4.84833501E-07  5.65891814E-02
 -1.34861813E-01 -1.72102455E-01  1.02691818E-01  1.02517963E-01 -1.59794814E-01
 -1.14499915E-01  6.83199313E-02  5.79747280E-02  6.92573212E-03 -4.03655068E-03
 -4.95299667E-03 -1.17277054E-02 -9.16703091E-03  5.46982390E-03  5.65885960E-02
 -1.34860456E-01  1.74984613E-01  9.76929478E-02  1.02515847E-01 -1.59792727E-01
  1.16417787E-01  6.49944266E-02  5.79735939E-02  7.50119325E-03 -4.61194425E-03
 -4.95298318E-03  1.13439620E-02  9.32058155E-03  5.20357125E-03  5.65921747E-02
 -1.34868250E-01 -2.88453524E-03 -2.00397990E-01  1.02525157E-01 -1.59804956E-01
 -1.91907283E-03 -1.33322726E-01  5.79791451E-02 -1.00921230E-02  1.29807726E-02
 -4.95272945E-03  3.83586218E-04 -1.53639557E-04 -1.06742873E-02 -1.56297392E-01
  3.62413800E-01  1.15042820E-06  7.88365189E-06  7.14905866E-02  1.50589396E-01
  1.87399691E-09 -2.75512073E-07  7.06200505E-02 -4.23483285E-03 -4.23483461E-03
  9.92275451E-03 -1.88153421E-07 -1.48534132E-07  7.73464977E-07  1.47073745E-01
  3.28435246E-02 -1.45630766E-02  3.66893119E-02  1.73133541E-01 -1.03299648E-01
  1.95441545E-01  3.90325952E-02  1.16064408E-01 -6.92494427E-02  1.25609120E-01
 -8.93370799E-03 -4.48426681E-04  1.08216093E-02  9.07720221E-03 -6.38212347E-03
  3.80826875E-03 -1.45619717E-02  3.66869097E-02 -1.76027521E-01 -9.82644139E-02
  1.95440845E-01  3.90282004E-02 -1.18004916E-01 -6.58742052E-02  1.25608464E-01
 -9.37876120E-03 -2.84256292E-06  1.08213515E-02 -8.77975450E-03  6.48917097E-03
  3.62306817E-03 -1.45598679E-02  3.66823607E-02  2.89838659E-03  2.01571291E-01
  1.95461955E-01  3.90191388E-02  1.94300302E-03  1.35128385E-01  1.25622148E-01
  4.23786881E-03 -1.36191233E-02  1.08221445E-02 -2.96713509E-04 -1.07056183E-04
 -7.43255355E-03 -5.39096744E-03  2.59722860E-03 -3.89299781E-06  1.51131591E-05
  3.34932039E-01  8.74059306E-02 -4.43924976E-07  5.28123283E-06  1.01741649E-01
 -3.87280509E-03 -3.87143508E-03  7.41103284E-03  1.95471259E-07  5.52811392E-07
  1.87215200E-06  1.51864351E-01  7.06455148E-02  3.86582661E-02 -8.10294873E-02
 -1.82524827E-01  2.55659954E-01  1.50033037E-01 -1.58817393E-01 -1.12700624E-01
  1.65201422E-01  9.33855694E-02  6.25145457E-03  7.59773101E-03  8.51065469E-04
 -1.19469704E-02 -8.03137950E-03  8.18148174E-03 -3.66722593E-02  7.68668199E-02
 -1.66349735E-01 -2.61996699E-01 -1.42313900E-01  1.50657472E-01 -1.02228328E-01
 -1.69962829E-01 -8.85807132E-02 -5.45046913E-03 -7.68746209E-03 -8.07007343E-04
 -1.21015577E-02 -7.52195330E-03 -8.10552835E-03 -1.98715282E-03  4.16524249E-03
  2.73881770E-01  1.08513227E-02 -7.70857825E-03  8.16342183E-03  1.82804889E-01
  6.69660515E-03 -4.79799112E-03 -2.48644255E-04 -4.63278684E-04 -4.35992008E-05
 -1.38171138E-02  6.32924910E-03  4.78781696E-04  2.99834659E-07 -8.64890532E-07
  3.03538036E-01 -1.82481219E-02  3.93037737E-06  3.13951852E-07  6.56430065E-02
 -3.94591046E-03  1.42635163E-06  1.88390550E-04 -1.88421113E-04 -1.55914704E-07
 -1.28733103E-02 -2.37984248E-02  1.43069311E-03  9.98045426E-07  4.81241366E-07
  2.00253645E-02 -4.19746366E-02 -2.52652432E-01 -1.32541744E-01  7.77301042E-02
 -8.22683978E-02 -1.63913348E-01 -9.12923171E-02  4.83819098E-02  1.51024011E-02
 -7.92833505E-03  4.40817036E-04  1.20395172E-03 -7.81245933E-03 -1.88170921E-03
  2.34661857E-02 -4.91867339E-02  2.64995988E-01 -1.16355132E-01  9.10810998E-02
 -9.64039346E-02  1.71246983E-01 -8.08118229E-02  5.66919497E-02  1.55848398E-02
 -7.17799849E-03  5.16501361E-04 -8.67472990E-04  8.47589634E-03 -1.37251955E-03
 -4.34918819E-02  9.11606955E-02 -7.84276389E-03  3.23872978E-01 -1.68785204E-01
  1.78677182E-01 -5.40719155E-03  2.04217711E-01 -1.05056760E-01  2.10511212E-03
 -1.76859837E-02 -9.57031706E-04  3.02022533E-04 -1.09192594E-04  1.24778413E-02
 -4.26476522E-06  8.83122079E-06 -1.82463376E-02 -3.03541068E-01  1.43286140E-05
  1.19407281E-05 -3.94648229E-03 -6.56455695E-02  5.96135757E-06  1.11511138E-02
 -1.11519728E-02 -1.81890328E-08  2.16541780E-04  1.43057963E-03  2.37983592E-02
  5.28300661E-06  2.25297955E-06  7.27556477E-03 -1.33075386E-02 -8.93144187E-02
 -1.02571187E-01  3.82964195E-01 -3.34544979E-02 -6.11374693E-02 -7.85744752E-02
  2.74383837E-01  3.82160949E-03 -6.17457034E-03  1.03797817E-02  1.11207946E-03
 -1.36763515E-02  6.64513875E-03 -6.46442361E-03  1.18236364E-02 -1.12074544E-01
  1.56740307E-01 -3.40248211E-01  2.97256277E-02 -7.84012590E-02  1.18118152E-01
 -2.43779042E-01 -5.58036757E-03  7.67026535E-03 -9.22213176E-03  2.87671638E-03
 -1.26597957E-02 -4.93586020E-03 -8.11259125E-04  1.48372043E-03 -3.25234379E-01
  7.37019936E-03 -4.27120431E-02  3.73067846E-03 -2.40089244E-01  4.81816574E-03
 -3.06021308E-02  6.41003582E-04 -3.78336437E-04 -1.15780592E-03  1.36167986E-02
 -3.13719175E-03  1.73490349E-03  2.88338361E-07 -5.54612666E-07  8.73235559E-02
 -1.02026206E-02 -2.04660050E-06 -1.50554495E-06  1.64895382E-03 -1.91834356E-04
  2.27888018E-07  2.36725606E-03 -2.36693157E-03 -3.94269063E-07 -3.73005794E-02
  1.24754239E-02 -1.45818909E-03 -2.05110720E-06 -1.71224379E-06 -3.26316276E-03
  5.96969263E-03 -1.43593327E-01 -2.61781723E-01 -1.71790034E-01  1.50007685E-02
 -1.08145292E-01 -1.91957661E-01 -1.23082303E-01  9.73013847E-03 -8.67305932E-03
 -4.65563854E-03  6.63149632E-03  4.34946744E-03 -5.97236408E-03 -4.66905407E-03
  8.54119846E-03  1.15693194E-01 -2.39019896E-01 -2.45771322E-01  2.14652754E-02
  8.85277106E-02 -1.74692493E-01 -1.76088040E-01  8.42857311E-03 -6.91743506E-03
 -6.66072797E-03 -6.79031891E-03 -7.23281862E-03 -6.98872565E-03  7.93203406E-03
 -1.45075998E-02 -3.36495900E-02 -2.58400450E-02  4.17535538E-01 -3.64745855E-02
 -2.47518547E-02 -1.29896024E-02  2.99154890E-01 -2.91115096E-03  3.45418159E-04
  1.13174275E-02  1.44865626E-03 -5.61058054E-04 -1.65107301E-02  2.20619391E-07
 -7.62078755E-07  1.02068233E-02  8.73186943E-02 -3.58201217E-06 -9.48598949E-07
  1.92870912E-04  1.64290229E-03 -8.90163760E-06 -3.23038916E-02  3.23036104E-02
  2.56231615E-08 -2.73362723E-03  1.45770300E-03  1.24756098E-02  1.08329814E-06
  4.52724342E-06 -2.65698462E-03  1.16268324E-02  3.51640183E-01 -6.74991956E-02
  2.51737460E-01 -1.46143635E-02  2.55620225E-01 -5.44041535E-02  1.75051104E-01
 -1.40841602E-02  2.91897005E-03  1.09501734E-02  1.08533071E-02 -1.69117172E-03
  3.45736897E-03  2.33837385E-03 -1.02320867E-02  3.46383623E-01 -1.28921706E-02
 -2.21520744E-01  1.28592149E-02  2.50607878E-01 -2.30140466E-03 -1.54039131E-01
  1.43823160E-02 -4.55737622E-03 -9.63578303E-03  7.95193074E-03 -9.66658649E-04
 -4.08811931E-03  3.18914734E-04 -1.39557226E-03  3.01510717E-01 -4.47459406E-02
 -3.02183910E-02  1.75432092E-03  2.07841594E-01 -3.26925049E-02 -2.10129684E-02
 -1.02155522E-03  2.36195877E-03 -1.31449507E-03 -8.56053798E-03  5.20246188E-03
  3.12126449E-04 -1.15472009E-07  3.55253700E-07 -9.51417050E-02  1.19106891E-02
 -1.19305383E-06  1.66990716E-07  6.66331151E-02 -8.34229850E-03 -6.78653608E-07
 -1.95338299E-03  1.95347792E-03 -8.57332747E-08  2.76630280E-02  2.43460960E-02
 -3.04795466E-03 -6.18917725E-07 -5.16528014E-07  1.16551872E-03 -5.09939971E-03
  1.58589420E-02  3.14762914E-01 -1.10455909E-01  6.40911390E-03  5.14724515E-03
  2.20458317E-01 -7.68084800E-02 -1.03511270E-03  5.93491560E-03 -4.80400202E-03
 -9.25760218E-03  3.66914187E-03  3.38831619E-03  1.71810842E-03 -7.51715393E-03
  7.06167627E-02  3.19992206E-01 -1.62799708E-01  9.44702045E-03  5.73572991E-02
  2.25451803E-01 -1.13207039E-01  2.63922235E-03  4.58220598E-03 -7.08077714E-03
  1.14889458E-02 -3.87481273E-03  2.66323942E-03 -2.88306604E-03  1.26173916E-02
  3.86567183E-02  3.64780377E-01  2.73227735E-01 -1.58643449E-02  2.68904344E-02
  2.68158646E-01  1.89995618E-01  7.27160807E-03 -1.93911255E-02  1.18853901E-02
 -1.39579978E-03  5.24195661E-04 -3.50681887E-03 -1.12730428E-08 -4.81257626E-07
 -1.19113814E-02 -9.51409140E-02  5.79313922E-06  4.49650944E-06  8.34160663E-03
  6.66323129E-02 -2.35783076E-06  2.39562421E-02 -2.39561359E-02  7.57847376E-07
  2.25553137E-03  3.04798285E-03  2.43461550E-02  3.60835114E-06  4.30625507E-06
  2.73917872E-07 -6.56669835E-07 -2.04492879E-01 -3.42824828E-01  2.77204298E-05
 -3.40080188E-06 -1.46215196E-01 -2.45127278E-01  1.89103333E-05  1.06306780E-02
 -1.06330544E-02  9.20489346E-07  6.62791645E-03 -3.85148821E-03 -6.45504424E-03
 -2.79190002E-07  5.23892584E-07 -1.94541351E-01  3.48589417E-01 -3.14906790E-05
  4.18241282E-06 -1.39099383E-01  2.49249011E-01 -2.13854820E-05 -1.02828348E-02
  1.02853905E-02 -1.09653874E-06  7.32404330E-03 -3.66415630E-03  6.56342211E-03
  6.27849277E-09  1.28179560E-07  3.99239385E-01 -5.73965195E-03  3.81678448E-06
 -7.83672128E-07  2.85462451E-01 -4.10373544E-03  2.50409260E-06 -3.47648060E-04
  3.47467999E-04  1.75408302E-07 -1.39489305E-02  7.51779886E-03 -1.08215047E-04
  9.90407463E-10 -2.28579458E-09 -1.64723134E-05 -1.89545308E-06 -2.31947960E-08
 -4.55989866E-09  1.30120438E-05  1.94198366E-06 -9.69963010E-09  7.53787572E-07
 -7.51679211E-07 -2.47403663E-09  5.17604448E-06  3.46443589E-06  3.68244895E-07
 -1.47818591E-08 -8.32242286E-09 -4.84985755E-03 -7.18354522E-03 -3.17459564E-02
  1.89457585E-02  3.04302738E-01  7.44802873E-02 -3.98950271E-02  2.38059983E-02
  2.34026587E-01 -3.33541081E-03 -6.59791000E-03 -6.66287788E-03 -3.49000319E-03
 -8.15524909E-03  4.86610239E-03 -4.84968977E-03 -7.18373778E-03  3.22819026E-02
  1.80246511E-02  3.04305501E-01  7.44790810E-02  4.05666849E-02  2.26480911E-02
  2.34028651E-01 -3.16391163E-03 -6.76910484E-03 -6.66279270E-03  3.37592704E-03
  8.29209991E-03  4.62936723E-03 -4.84990132E-03 -7.18113938E-03 -5.30813050E-04