
    -----------------------------------------------------------------------
          Psi4: An Open-Source Ab Initio Electronic Structure Package
                               Psi4 1.3.2 release

                         Git: Rev {HEAD} ecbda83 


    R. M. Parrish, L. A. Burns, D. G. A. Smith, A. C. Simmonett,
    A. E. DePrince III, E. G. Hohenstein, U. Bozkaya, A. Yu. Sokolov,
    R. Di Remigio, R. M. Richard, J. F. Gonthier, A. M. James,
    H. R. McAlexander, A. Kumar, M. Saitow, X. Wang, B. P. Pritchard,
    P. Verma, H. F. Schaefer III, K. Patkowski, R. A. King, E. F. Valeev,
    F. A. Evangelista, J. M. Turney, T. D. Crawford, and C. D. Sherrill,
    J. Chem. Theory Comput. 13(7) pp 3185--3197 (2017).
    (doi: 10.1021/acs.jctc.7b00174)


                         Additional Contributions by
    P. Kraus, H. Kruse, M. H. Lechner, M. C. Schieber, R. A. Shaw,
    A. Alenaizan, R. Galvelis, Z. L. Glick, S. Lehtola, and J. P. Misiewicz

    -----------------------------------------------------------------------


    Psi4 started on: Monday, 02 November 2020 02:49PM

    Process ID: 49984
    Host:       node94.bme.utexas.edu
    PSIDATADIR: /home/xy3866/psi4conda/share/psi4
    Memory:     500.0 MiB
    Threads:    8
    
  ==> Input File <==

--------------------------------------------------------------------------
#psi4
#
memory 32 gb

molecule  {
-1 1
  O        1.1365690     1.2999450     0.1428980
  O       -1.4424670    -1.1799650     0.1827610
  O       -1.3575130     1.0293890    -0.3577040
  C        0.6396440    -0.0155260     0.4104950
  C        1.4464200    -1.0470520    -0.3590510
  C       -0.9580733    -0.0756179     0.0233989
  H        0.7165270    -0.2335850     1.4896730
  H        1.3388480    -0.8658950    -1.4332610
  H        2.5070550    -0.9809740    -0.0983190
  H        1.0872750    -2.0528800    -0.1336960
  H        0.3068940     1.7456410    -0.1582790
units angstrom
no_reorient  #important for SAPT in psi4, default
symmetry c1  #important for SAPT in psi4, default
}

set PROPERTIES_ORIGIN ["COM"]
properties('MP2/aug-cc-pvtz', properties = ['dipole'])
--------------------------------------------------------------------------

  Memory set to  29.802 GiB by Python driver.
    SCF Algorithm Type (re)set to DF.

*** tstart() called on node94.bme.utexas.edu
*** at Mon Nov  2 14:49:42 2020

   => Loading Basis Set <=

    Name: AUG-CC-PVTZ
    Role: ORBITAL
    Keyword: BASIS
    atoms 1-3  entry O          line   327 file /home/xy3866/psi4conda/share/psi4/basis/aug-cc-pvtz.gbs 
    atoms 4-6  entry C          line   235 file /home/xy3866/psi4conda/share/psi4/basis/aug-cc-pvtz.gbs 
    atoms 7-11 entry H          line    36 file /home/xy3866/psi4conda/share/psi4/basis/aug-cc-pvtz.gbs 


         ---------------------------------------------------------
                                   SCF
               by Justin Turney, Rob Parrish, Andy Simmonett
                          and Daniel G. A. Smith
                              RHF Reference
                        8 Threads,  30517 MiB Core
         ---------------------------------------------------------

  ==> Geometry <==

    Molecular point group: c1
    Full point group: C1

    Geometry (in Angstrom), charge = -1, multiplicity = 1:

       Center              X                  Y                   Z               Mass       
    ------------   -----------------  -----------------  -----------------  -----------------
         O            1.215952417289     1.273892083268     0.142346876755    15.994914619570
         O           -1.363083582711    -1.206017916732     0.182209876755    15.994914619570
         O           -1.278129582711     1.003336083268    -0.358255123245    15.994914619570
         C            0.719027417289    -0.041578916732     0.409943876755    12.000000000000
         C            1.525803417289    -1.073104916732    -0.359602123245    12.000000000000
         C           -0.878689882711    -0.101670816732     0.022847776755    12.000000000000
         H            0.795910417289    -0.259637916732     1.489121876755     1.007825032230
         H            1.418231417289    -0.891947916732    -1.433812123245     1.007825032230
         H            2.586438417289    -1.007026916732    -0.098870123245     1.007825032230
         H            1.166658417289    -2.078932916732    -0.134247123245     1.007825032230
         H            0.386277417289     1.719588083268    -0.158830123245     1.007825032230

  Running in c1 symmetry.

  Rotational constants: A =      0.17093  B =      0.11596  C =      0.07581 [cm^-1]
  Rotational constants: A =   5124.21213  B =   3476.38722  C =   2272.60574 [MHz]
  Nuclear repulsion =  238.774138462744730

  Charge       = -1
  Multiplicity = 1
  Electrons    = 48
  Nalpha       = 24
  Nbeta        = 24

  ==> Algorithm <==

  SCF Algorithm Type is DF.
  DIIS enabled.
  MOM disabled.
  Fractional occupation disabled.
  Guess Type is SAD.
  Energy threshold   = 1.00e-10
  Density threshold  = 1.00e-10
  Integral threshold = 0.00e+00

  ==> Primary Basis <==

  Basis Set: AUG-CC-PVTZ
    Blend: AUG-CC-PVTZ
    Number of shells: 129
    Number of basis function: 391
    Number of Cartesian functions: 455
    Spherical Harmonics?: true
    Max angular momentum: 3

   => Loading Basis Set <=

    Name: (AUG-CC-PVTZ AUX)
    Role: JKFIT
    Keyword: DF_BASIS_SCF
    atoms 1-3  entry O          line   286 file /home/xy3866/psi4conda/share/psi4/basis/aug-cc-pvtz-jkfit.gbs 
    atoms 4-6  entry C          line   162 file /home/xy3866/psi4conda/share/psi4/basis/aug-cc-pvtz-jkfit.gbs 
    atoms 7-11 entry H          line    70 file /home/xy3866/psi4conda/share/psi4/basis/aug-cc-pvtz-jkfit.gbs 

  ==> Pre-Iterations <==

   -------------------------------------------------------
    Irrep   Nso     Nmo     Nalpha   Nbeta   Ndocc  Nsocc
   -------------------------------------------------------
     A        391     391       0       0       0       0
   -------------------------------------------------------
    Total     391     391      24      24      24       0
   -------------------------------------------------------

  ==> Integral Setup <==

  DFHelper Memory: AOs need 1.007 GiB; user supplied 22.352 GiB. Using in-core AOs.

  ==> MemDFJK: Density-Fitted J/K Matrices <==

    J tasked:                   Yes
    K tasked:                   Yes
    wK tasked:                   No
    OpenMP threads:               8
    Memory [MiB]:             22888
    Algorithm:                 Core
    Schwarz Cutoff:           1E-12
    Mask sparsity (%):       1.1604
    Fitting Condition:        1E-10

   => Auxiliary Basis Set <=

  Basis Set: (AUG-CC-PVTZ AUX)
    Blend: AUG-CC-PVTZ-JKFIT
    Number of shells: 250
    Number of basis function: 854
    Number of Cartesian functions: 1061
    Spherical Harmonics?: true
    Max angular momentum: 4

  Minimum eigenvalue in the overlap matrix is 1.7129027954E-05.
  Using Symmetric Orthogonalization.

  SCF Guess: Superposition of Atomic Densities via on-the-fly atomic UHF.

  ==> Iterations <==

                           Total Energy        Delta E     RMS |[F,P]|

   @DF-RHF iter SAD:  -340.03101083884746   -3.40031e+02   0.00000e+00 
   @DF-RHF iter   1:  -341.02635452177782   -9.95344e-01   1.93506e-03 DIIS
   @DF-RHF iter   2:  -341.20860428905718   -1.82250e-01   1.16840e-03 DIIS
   @DF-RHF iter   3:  -341.27501377255743   -6.64095e-02   1.42061e-04 DIIS
   @DF-RHF iter   4:  -341.27711377713359   -2.10000e-03   5.87135e-05 DIIS
   @DF-RHF iter   5:  -341.27743899892459   -3.25222e-04   1.15541e-05 DIIS
   @DF-RHF iter   6:  -341.27745723283925   -1.82339e-05   4.16646e-06 DIIS
   @DF-RHF iter   7:  -341.27745901050406   -1.77766e-06   1.61291e-06 DIIS
   @DF-RHF iter   8:  -341.27745927433978   -2.63836e-07   4.71119e-07 DIIS
   @DF-RHF iter   9:  -341.27745930241201   -2.80722e-08   1.38139e-07 DIIS
   @DF-RHF iter  10:  -341.27745930597769   -3.56567e-09   4.27751e-08 DIIS
   @DF-RHF iter  11:  -341.27745930631670   -3.39014e-10   1.38705e-08 DIIS
   @DF-RHF iter  12:  -341.27745930634353   -2.68301e-11   5.51076e-09 DIIS
   @DF-RHF iter  13:  -341.27745930634825   -4.71800e-12   1.59343e-09 DIIS
   @DF-RHF iter  14:  -341.27745930634745    7.95808e-13   4.08975e-10 DIIS
   @DF-RHF iter  15:  -341.27745930634808   -6.25278e-13   1.67679e-10 DIIS
   @DF-RHF iter  16:  -341.27745930634791    1.70530e-13   6.88712e-11 DIIS
  Energy and wave function converged.


  ==> Post-Iterations <==

    Orbital Energies [Eh]
    ---------------------

    Doubly Occupied:                                                      

       1A    -20.375239     2A    -20.322391     3A    -20.315902  
       4A    -11.151818     5A    -11.103416     6A    -11.064375  
       7A     -1.215317     8A     -1.169091     9A     -1.115817  
      10A     -0.848048    11A     -0.676013    12A     -0.552349  
      13A     -0.506181    14A     -0.471599    15A     -0.438420  
      16A     -0.411052    17A     -0.396045    18A     -0.377519  
      19A     -0.369780    20A     -0.358781    21A     -0.272051  
      22A     -0.246448    23A     -0.227748    24A     -0.191223  

    Virtual:                                                              

      25A      0.123439    26A      0.135914    27A      0.141455  
      28A      0.146647    29A      0.157987    30A      0.188730  
      31A      0.202870    32A      0.212108    33A      0.217174  
      34A      0.234004    35A      0.240245    36A      0.249663  
      37A      0.253766    38A      0.259172    39A      0.271312  
      40A      0.293898    41A      0.306459    42A      0.323191  
      43A      0.333471    44A      0.338740    45A      0.340348  
      46A      0.361421    47A      0.367674    48A      0.383803  
      49A      0.390619    50A      0.393465    51A      0.398644  
      52A      0.408152    53A      0.420321    54A      0.427317  
      55A      0.433054    56A      0.463411    57A      0.466368  
      58A      0.477599    59A      0.484755    60A      0.492895  
      61A      0.500527    62A      0.503219    63A      0.509242  
      64A      0.510455    65A      0.513652    66A      0.532183  
      67A      0.538739    68A      0.551282    69A      0.567622  
      70A      0.583178    71A      0.585527    72A      0.599061  
      73A      0.604880    74A      0.608567    75A      0.618238  
      76A      0.624117    77A      0.634775    78A      0.645411  
      79A      0.652135    80A      0.670737    81A      0.672561  
      82A      0.691737    83A      0.696337    84A      0.708443  
      85A      0.710457    86A      0.721357    87A      0.732514  
      88A      0.744248    89A      0.750804    90A      0.778986  
      91A      0.804587    92A      0.810952    93A      0.837126  
      94A      0.851478    95A      0.865831    96A      0.895868  
      97A      0.900339    98A      0.911364    99A      0.930665  
     100A      0.944059   101A      0.953252   102A      0.961776  
     103A      0.969134   104A      0.992084   105A      1.000202  
     106A      1.005365   107A      1.013860   108A      1.024283  
     109A      1.033516   110A      1.045728   111A      1.056178  
     112A      1.071007   113A      1.076188   114A      1.080636  
     115A      1.093957   116A      1.099894   117A      1.105523  
     118A      1.130564   119A      1.146119   120A      1.152213  
     121A      1.154573   122A      1.161360   123A      1.182877  
     124A      1.184321   125A      1.199991   126A      1.214561  
     127A      1.235635   128A      1.244576   129A      1.262516  
     130A      1.266493   131A      1.271478   132A      1.282751  
     133A      1.294952   134A      1.297649   135A      1.315951  
     136A      1.325640   137A      1.340059   138A      1.349321  
     139A      1.362140   140A      1.370930   141A      1.392502  
     142A      1.403786   143A      1.409972   144A      1.423800  
     145A      1.439530   146A      1.446667   147A      1.467790  
     148A      1.479658   149A      1.503442   150A      1.520242  
     151A      1.521514   152A      1.548541   153A      1.565348  
     154A      1.576009   155A      1.591311   156A      1.598282  
     157A      1.620282   158A      1.644788   159A      1.657011  
     160A      1.664570   161A      1.681183   162A      1.703585  
     163A      1.713870   164A      1.725031   165A      1.734873  
     166A      1.746920   167A      1.762042   168A      1.781412  
     169A      1.810720   170A      1.816002   171A      1.839457  
     172A      1.844770   173A      1.853178   174A      1.861555  
     175A      1.870230   176A      1.889094   177A      1.907708  
     178A      1.929491   179A      1.932539   180A      1.951134  
     181A      1.964771   182A      1.970703   183A      1.988827  
     184A      2.017623   185A      2.026223   186A      2.032886  
     187A      2.064643   188A      2.081665   189A      2.084260  
     190A      2.139316   191A      2.143757   192A      2.168541  
     193A      2.173295   194A      2.194926   195A      2.240388  
     196A      2.255488   197A      2.279881   198A      2.301070  
     199A      2.319072   200A      2.328892   201A      2.367017  
     202A      2.394045   203A      2.396921   204A      2.418894  
     205A      2.452836   206A      2.489087   207A      2.503841  
     208A      2.537750   209A      2.571638   210A      2.602137  
     211A      2.610570   212A      2.630072   213A      2.644416  
     214A      2.662550   215A      2.691711   216A      2.716208  
     217A      2.725862   218A      2.749348   219A      2.767087  
     220A      2.794389   221A      2.808714   222A      2.815916  
     223A      2.833907   224A      2.850492   225A      2.868820  
     226A      2.886467   227A      2.900653   228A      2.946118  
     229A      2.981289   230A      2.997791   231A      3.050716  
     232A      3.070221   233A      3.076606   234A      3.099228  
     235A      3.120669   236A      3.152166   237A      3.173712  
     238A      3.198563   239A      3.212817   240A      3.230645  
     241A      3.258822   242A      3.293173   243A      3.305121  
     244A      3.355643   245A      3.356129   246A      3.389806  
     247A      3.432361   248A      3.478096   249A      3.486557  
     250A      3.531876   251A      3.553292   252A      3.599268  
     253A      3.621903   254A      3.648304   255A      3.682033  
     256A      3.740618   257A      3.762174   258A      3.793628  
     259A      3.809209   260A      3.826678   261A      3.853560  
     262A      3.861525   263A      3.888984   264A      3.913146  
     265A      3.924624   266A      3.932462   267A      3.973618  
     268A      3.987068   269A      4.019416   270A      4.082847  
     271A      4.093207   272A      4.100107   273A      4.104952  
     274A      4.147454   275A      4.157767   276A      4.160798  
     277A      4.210021   278A      4.234060   279A      4.274387  
     280A      4.288546   281A      4.305830   282A      4.341670  
     283A      4.350222   284A      4.357650   285A      4.387419  
     286A      4.396415   287A      4.431873   288A      4.464165  
     289A      4.510432   290A      4.530636   291A      4.541327  
     292A      4.567057   293A      4.588297   294A      4.605200  
     295A      4.649008   296A      4.656617   297A      4.685864  
     298A      4.738224   299A      4.786100   300A      4.811386  
     301A      4.828222   302A      4.843433   303A      4.861992  
     304A      4.931928   305A      4.971421   306A      4.988982  
     307A      5.007454   308A      5.038642   309A      5.065037  
     310A      5.097740   311A      5.108320   312A      5.161875  
     313A      5.187672   314A      5.212962   315A      5.232036  
     316A      5.278191   317A      5.298284   318A      5.326376  
     319A      5.347651   320A      5.381903   321A      5.399310  
     322A      5.462739   323A      5.485147   324A      5.516363  
     325A      5.575258   326A      5.583776   327A      5.607898  
     328A      5.620786   329A      5.651038   330A      5.668664  
     331A      5.716611   332A      5.734913   333A      5.803071  
     334A      5.876350   335A      5.916029   336A      5.971342  
     337A      6.028885   338A      6.061472   339A      6.121445  
     340A      6.212877   341A      6.306731   342A      6.322182  
     343A      6.389542   344A      6.472871   345A      6.646039  
     346A      6.672014   347A      6.852647   348A      6.917619  
     349A      6.925771   350A      6.937604   351A      6.967821  
     352A      7.023662   353A      7.101520   354A      7.127535  
     355A      7.172113   356A      7.187313   357A      7.197841  
     358A      7.237973   359A      7.281734   360A      7.315754  
     361A      7.356446   362A      7.418766   363A      7.444641  
     364A      7.454894   365A      7.478468   366A      7.537386  
     367A      7.583862   368A      7.608337   369A      7.623809  
     370A      7.703452   371A      7.721905   372A      7.732030  
     373A      7.859569   374A      7.870904   375A      7.907375  
     376A      7.956269   377A      7.958582   378A      8.035326  
     379A      8.088687   380A      8.131045   381A      8.189282  
     382A      8.253980   383A      8.403647   384A      8.415740  
     385A      8.683698   386A     15.559447   387A     15.721568  
     388A     16.546725   389A     17.460910   390A     18.359610  
     391A     18.762781  

    Final Occupation by Irrep:
              A 
    DOCC [    24 ]

  @DF-RHF Final Energy:  -341.27745930634791

   => Energetics <=

    Nuclear Repulsion Energy =            238.7741384627447303
    One-Electron Energy =                -951.7499483937999685
    Two-Electron Energy =                 371.6983506247073024
    Total Energy =                       -341.2774593063479074

Computation Completed

*** tstop() called on node94.bme.utexas.edu at Mon Nov  2 14:49:50 2020
Module time:
	user time   =      47.87 seconds =       0.80 minutes
	system time =       1.25 seconds =       0.02 minutes
	total time  =          8 seconds =       0.13 minutes
Total time:
	user time   =      47.87 seconds =       0.80 minutes
	system time =       1.25 seconds =       0.02 minutes
	total time  =          8 seconds =       0.13 minutes
   => Loading Basis Set <=

    Name: (AUG-CC-PVTZ AUX)
    Role: RIFIT
    Keyword: DF_BASIS_MP2
    atoms 1-3  entry O          line   264 file /home/xy3866/psi4conda/share/psi4/basis/aug-cc-pvtz-ri.gbs 
    atoms 4-6  entry C          line   148 file /home/xy3866/psi4conda/share/psi4/basis/aug-cc-pvtz-ri.gbs 
    atoms 7-11 entry H          line    30 file /home/xy3866/psi4conda/share/psi4/basis/aug-cc-pvtz-ri.gbs 


*** tstart() called on node94.bme.utexas.edu
*** at Mon Nov  2 14:49:50 2020


  //>>>>>>>>>>>>>>>>>>>>>>>>>>>>>>>>>>>//
  //               DFMP2               //
  //<<<<<<<<<<<<<<<<<<<<<<<<<<<<<<<<<<<//

	 --------------------------------------------------------
	                          DF-MP2                         
	      2nd-Order Density-Fitted Moller-Plesset Theory     
	              RMP2 Wavefunction,   8 Threads             
	                                                         
	        Rob Parrish, Justin Turney, Andy Simmonett,      
	           Ed Hohenstein, and C. David Sherrill          
	 --------------------------------------------------------

   => Auxiliary Basis Set <=

  Basis Set: (AUG-CC-PVTZ AUX)
    Blend: AUG-CC-PVTZ-RI
    Number of shells: 238
    Number of basis function: 866
    Number of Cartesian functions: 1091
    Spherical Harmonics?: true
    Max angular momentum: 4

	 --------------------------------------------------------
	                 NBF =   391, NAUX =   866
	 --------------------------------------------------------
	   CLASS    FOCC     OCC    AOCC    AVIR     VIR    FVIR
	   PAIRS       0      24      24     367     367       0
	 --------------------------------------------------------

  DFHelper Memory: AOs need 1.007 GiB; user supplied 22.352 GiB. Using in-core AOs.


         ------------------------------------------------------------
                                     CPHF                           
                                  Rob Parrish                       
         ------------------------------------------------------------

  ==> Geometry <==

    Molecular point group: c1
    Full point group: C1

    Geometry (in Angstrom), charge = -1, multiplicity = 1:

       Center              X                  Y                   Z               Mass       
    ------------   -----------------  -----------------  -----------------  -----------------
         O            1.215952417289     1.273892083268     0.142346876755    15.994914619570
         O           -1.363083582711    -1.206017916732     0.182209876755    15.994914619570
         O           -1.278129582711     1.003336083268    -0.358255123245    15.994914619570
         C            0.719027417289    -0.041578916732     0.409943876755    12.000000000000
         C            1.525803417289    -1.073104916732    -0.359602123245    12.000000000000
         C           -0.878689882711    -0.101670816732     0.022847776755    12.000000000000
         H            0.795910417289    -0.259637916732     1.489121876755     1.007825032230
         H            1.418231417289    -0.891947916732    -1.433812123245     1.007825032230
         H            2.586438417289    -1.007026916732    -0.098870123245     1.007825032230
         H            1.166658417289    -2.078932916732    -0.134247123245     1.007825032230
         H            0.386277417289     1.719588083268    -0.158830123245     1.007825032230

  Nuclear repulsion =  238.774138462744730
  Reference energy  = -341.277459306347907

  ==> Basis Set <==

  Basis Set: AUG-CC-PVTZ
    Blend: AUG-CC-PVTZ
    Number of shells: 129
    Number of basis function: 391
    Number of Cartesian functions: 455
    Spherical Harmonics?: true
    Max angular momentum: 3

  ==> CGRSolver (by Rob Parrish) <==

   Number of roots    =         1
   Preconditioning    =    JACOBI
   Convergence cutoff =     1E-06
   Maximum iterations =       100

  ==> CPHFRHamiltonian (by Rob Parrish) <== 

  ==> MemDFJK: Density-Fitted J/K Matrices <==

    J tasked:                   Yes
    K tasked:                   Yes
    wK tasked:                   No
    OpenMP threads:               8
    Memory [MiB]:             22888
    Algorithm:                 Core
    Schwarz Cutoff:           1E-12
    Mask sparsity (%):       1.1604
    Fitting Condition:        1E-10

   => Auxiliary Basis Set <=

  Basis Set: (AUG-CC-PVTZ AUX)
    Blend: AUG-CC-PVTZ-JKFIT
    Number of shells: 250
    Number of basis function: 854
    Number of Cartesian functions: 1061
    Spherical Harmonics?: true
    Max angular momentum: 4

  ==> CPHF Iterations <==

  => Iterations <=

             Iter  Converged  Remaining    Residual
  CGR           1          0          1   1.022E-01
  CGR           2          0          1   2.475E-02
  CGR           3          0          1   9.637E-03
  CGR           4          0          1   2.207E-03
  CGR           5          0          1   5.977E-04
  CGR           6          0          1   2.562E-04
  CGR           7          0          1   8.042E-05
  CGR           8          0          1   2.773E-05
  CGR           9          0          1   9.157E-06
  CGR          10          0          1   3.593E-06
  CGR          11          0          1   1.503E-06
  CGR          12          1          0   5.202E-07

    CGRSolver converged.

	-----------------------------------------------------------
	 ==================> DF-MP2 Energies <==================== 
	-----------------------------------------------------------
	 Reference Energy          =    -341.2774593063479074 [Eh]
	 Singles Energy            =      -0.0000000000000000 [Eh]
	 Same-Spin Energy          =      -0.3353299178513595 [Eh]
	 Opposite-Spin Energy      =      -1.0162628560682232 [Eh]
	 Correlation Energy        =      -1.3515927739195828 [Eh]
	 Total Energy              =    -342.6290520802675132 [Eh]
	-----------------------------------------------------------
	 ================> DF-SCS-MP2 Energies <================== 
	-----------------------------------------------------------
	 SCS Same-Spin Scale       =       0.3333333333333333 [-]
	 SCS Opposite-Spin Scale   =       1.2000000000000000 [-]
	 SCS Same-Spin Energy      =      -0.1117766392837865 [Eh]
	 SCS Opposite-Spin Energy  =      -1.2195154272818678 [Eh]
	 SCS Correlation Energy    =      -1.3312920665656542 [Eh]
	 SCS Total Energy          =    -342.6087513729135594 [Eh]
	-----------------------------------------------------------



Properties will be evaluated at   0.000000,   0.000000,  -0.000000 [a0]

Properties computed using the MP2 density matrix

  Nuclear Dipole Moment: [e a0]
     X:     5.9494      Y:    -2.3554      Z:    -0.3157

  Electronic Dipole Moment: [e a0]
     X:    -4.7178      Y:     2.1705      Z:     0.4182

  Dipole Moment: [e a0]
     X:     1.2316      Y:    -0.1849      Z:     0.1024     Total:     1.2496

  Dipole Moment: [D]
     X:     3.1305      Y:    -0.4699      Z:     0.2603     Total:     3.1762


*** tstop() called on node94.bme.utexas.edu at Mon Nov  2 14:50:12 2020
Module time:
	user time   =     147.24 seconds =       2.45 minutes
	system time =       3.67 seconds =       0.06 minutes
	total time  =         22 seconds =       0.37 minutes
Total time:
	user time   =     195.95 seconds =       3.27 minutes
	system time =       4.96 seconds =       0.08 minutes
	total time  =         30 seconds =       0.50 minutes

    Psi4 stopped on: Monday, 02 November 2020 02:50PM
    Psi4 wall time for execution: 0:00:30.36

*** Psi4 exiting successfully. Buy a developer a beer!
