53346593                                                                
Freq      RMP2-FC                                                     6-31G(d)            
Number of atoms                            I               15
Info1-9                                    I   N=           9
          27          25        1002           0           0         100
           6           2           1
Charge                                     I                0
Multiplicity                               I                1
Number of electrons                        I               56
Number of alpha electrons                  I               28
Number of beta electrons                   I               28
Number of basis functions                  I              121
Number of independent functions            I              121
Number of point charges in /Mol/           I                0
Number of translation vectors              I                0
Atomic numbers                             I   N=          15
           8           8           8           6           6           6
           6           1           1           1           1           1
           1           1           1
Nuclear charges                            R   N=          15
  8.00000000E+00  8.00000000E+00  8.00000000E+00  6.00000000E+00  6.00000000E+00
  6.00000000E+00  6.00000000E+00  1.00000000E+00  1.00000000E+00  1.00000000E+00
  1.00000000E+00  1.00000000E+00  1.00000000E+00  1.00000000E+00  1.00000000E+00
Current cartesian coordinates              R   N=          45
  3.51874724E+00 -1.40421055E+00 -9.11334126E-02 -8.70749052E-01  3.04331707E+00
 -5.15751403E-01 -3.99845587E+00 -1.03740153E+00 -4.56550823E-01  6.63493429E-02
  6.24795949E-01  8.51882025E-02  2.57407891E+00  6.15752624E-01  1.51362118E+00
  1.56191471E+00 -8.30974043E-01 -1.94063555E+00 -1.96405723E+00 -9.53679703E-01
  1.32894922E+00  3.60958645E+00  2.38991197E+00  1.23183137E+00  2.58138357E+00
  9.15566612E-02  3.51707450E+00  7.32621511E-01 -2.53936548E+00 -2.75872290E+00
  2.25267857E+00  4.35795140E-01 -3.42905259E+00 -2.55307591E+00 -3.14539238E-02
  3.09371589E+00 -1.22984242E+00 -2.84557428E+00  1.75766292E+00 -2.56563876E+00
  2.75335271E+00 -1.18720915E+00 -5.45376594E+00 -1.80323162E+00  3.59446753E-01
Force Field                                I                0
Int Atom Types                             I   N=          15
           0           0           0           0           0           0
           0           0           0           0           0           0
           0           0           0
MM charges                                 R   N=          15
  0.00000000E+00  0.00000000E+00  0.00000000E+00  0.00000000E+00  0.00000000E+00
  0.00000000E+00  0.00000000E+00  0.00000000E+00  0.00000000E+00  0.00000000E+00
  0.00000000E+00  0.00000000E+00  0.00000000E+00  0.00000000E+00  0.00000000E+00
Integer atomic weights                     I   N=          15
          16          16          16          12          12          12
          12           1           1           1           1           1
           1           1           1
Real atomic weights                        R   N=          15
  1.59949146E+01  1.59949146E+01  1.59949146E+01  1.20000000E+01  1.20000000E+01
  1.20000000E+01  1.20000000E+01  1.00782504E+00  1.00782504E+00  1.00782504E+00
  1.00782504E+00  1.00782504E+00  1.00782504E+00  1.00782504E+00  1.00782504E+00
Atom fragment info                         I   N=          15
           0           0           0           0           0           0
           0           0           0           0           0           0
           0           0           0
Atom residue num                           I   N=          15
           0           0           0           0           0           0
           0           0           0           0           0           0
           0           0           0
Nuclear spins                              I   N=          15
           0           0           0           0           0           0
           0           1           1           1           1           1
           1           1           1
Nuclear ZEff                               R   N=          15
 -5.60000000E+00 -5.60000000E+00 -5.60000000E+00 -3.60000000E+00 -3.60000000E+00
 -3.60000000E+00 -3.60000000E+00 -1.00000000E+00 -1.00000000E+00 -1.00000000E+00
 -1.00000000E+00 -1.00000000E+00 -1.00000000E+00 -1.00000000E+00 -1.00000000E+00
Nuclear QMom                               R   N=          15
  0.00000000E+00  0.00000000E+00  0.00000000E+00  0.00000000E+00  0.00000000E+00
  0.00000000E+00  0.00000000E+00  0.00000000E+00  0.00000000E+00  0.00000000E+00
  0.00000000E+00  0.00000000E+00  0.00000000E+00  0.00000000E+00  0.00000000E+00
Nuclear GFac                               R   N=          15
  0.00000000E+00  0.00000000E+00  0.00000000E+00  0.00000000E+00  0.00000000E+00
  0.00000000E+00  0.00000000E+00  2.79284600E+00  2.79284600E+00  2.79284600E+00
  2.79284600E+00  2.79284600E+00  2.79284600E+00  2.79284600E+00  2.79284600E+00
MicOpt                                     I   N=          15
          -1          -1          -1          -1          -1          -1
          -1          -1          -1          -1          -1          -1
          -1          -1          -1
Number of contracted shells                I               44
Number of primitive shells                 I              109
Pure/Cartesian d shells                    I                1
Pure/Cartesian f shells                    I                0
Highest angular momentum                   I                2
Largest degree of contraction              I                6
Shell types                                I   N=          44
           0          -1          -1           2           0          -1
          -1           2           0          -1          -1           2
           0          -1          -1           2           0          -1
          -1           2           0          -1          -1           2
           0          -1          -1           2           0           0
           0           0           0           0           0           0
           0           0           0           0           0           0
           0           0
Number of primitives per shell             I   N=          44
           6           3           1           1           6           3
           1           1           6           3           1           1
           6           3           1           1           6           3
           1           1           6           3           1           1
           6           3           1           1           3           1
           3           1           3           1           3           1
           3           1           3           1           3           1
           3           1
Shell to atom map                          I   N=          44
           1           1           1           1           2           2
           2           2           3           3           3           3
           4           4           4           4           5           5
           5           5           6           6           6           6
           7           7           7           7           8           8
           9           9          10          10          11          11
          12          12          13          13          14          14
          15          15
Primitive exponents                        R   N=         109
  5.48467166E+03  8.25234946E+02  1.88046958E+02  5.29645000E+01  1.68975704E+01
  5.79963534E+00  1.55396162E+01  3.59993359E+00  1.01376175E+00  2.70005823E-01
  8.00000000E-01  5.48467166E+03  8.25234946E+02  1.88046958E+02  5.29645000E+01
  1.68975704E+01  5.79963534E+00  1.55396162E+01  3.59993359E+00  1.01376175E+00
  2.70005823E-01  8.00000000E-01  5.48467166E+03  8.25234946E+02  1.88046958E+02
  5.29645000E+01  1.68975704E+01  5.79963534E+00  1.55396162E+01  3.59993359E+00
  1.01376175E+00  2.70005823E-01  8.00000000E-01  3.04752488E+03  4.57369518E+02
  1.03948685E+02  2.92101553E+01  9.28666296E+00  3.16392696E+00  7.86827235E+00
  1.88128854E+00  5.44249258E-01  1.68714478E-01  8.00000000E-01  3.04752488E+03
  4.57369518E+02  1.03948685E+02  2.92101553E+01  9.28666296E+00  3.16392696E+00
  7.86827235E+00  1.88128854E+00  5.44249258E-01  1.68714478E-01  8.00000000E-01
  3.04752488E+03  4.57369518E+02  1.03948685E+02  2.92101553E+01  9.28666296E+00
  3.16392696E+00  7.86827235E+00  1.88128854E+00  5.44249258E-01  1.68714478E-01
  8.00000000E-01  3.04752488E+03  4.57369518E+02  1.03948685E+02  2.92101553E+01
  9.28666296E+00  3.16392696E+00  7.86827235E+00  1.88128854E+00  5.44249258E-01
  1.68714478E-01  8.00000000E-01  1.87311370E+01  2.82539436E+00  6.40121692E-01
  1.61277759E-01  1.87311370E+01  2.82539436E+00  6.40121692E-01  1.61277759E-01
  1.87311370E+01  2.82539436E+00  6.40121692E-01  1.61277759E-01  1.87311370E+01
  2.82539436E+00  6.40121692E-01  1.61277759E-01  1.87311370E+01  2.82539436E+00
  6.40121692E-01  1.61277759E-01  1.87311370E+01  2.82539436E+00  6.40121692E-01
  1.61277759E-01  1.87311370E+01  2.82539436E+00  6.40121692E-01  1.61277759E-01
  1.87311370E+01  2.82539436E+00  6.40121692E-01  1.61277759E-01
Contraction coefficients                   R   N=         109
  1.83107443E-03  1.39501722E-02  6.84450781E-02  2.32714336E-01  4.70192898E-01
  3.58520853E-01 -1.10777550E-01 -1.48026263E-01  1.13076702E+00  1.00000000E+00
  1.00000000E+00  1.83107443E-03  1.39501722E-02  6.84450781E-02  2.32714336E-01
  4.70192898E-01  3.58520853E-01 -1.10777550E-01 -1.48026263E-01  1.13076702E+00
  1.00000000E+00  1.00000000E+00  1.83107443E-03  1.39501722E-02  6.84450781E-02
  2.32714336E-01  4.70192898E-01  3.58520853E-01 -1.10777550E-01 -1.48026263E-01
  1.13076702E+00  1.00000000E+00  1.00000000E+00  1.83473713E-03  1.40373228E-02
  6.88426223E-02  2.32184443E-01  4.67941348E-01  3.62311985E-01 -1.19332420E-01
 -1.60854152E-01  1.14345644E+00  1.00000000E+00  1.00000000E+00  1.83473713E-03
  1.40373228E-02  6.88426223E-02  2.32184443E-01  4.67941348E-01  3.62311985E-01
 -1.19332420E-01 -1.60854152E-01  1.14345644E+00  1.00000000E+00  1.00000000E+00
  1.83473713E-03  1.40373228E-02  6.88426223E-02  2.32184443E-01  4.67941348E-01
  3.62311985E-01 -1.19332420E-01 -1.60854152E-01  1.14345644E+00  1.00000000E+00
  1.00000000E+00  1.83473713E-03  1.40373228E-02  6.88426223E-02  2.32184443E-01
  4.67941348E-01  3.62311985E-01 -1.19332420E-01 -1.60854152E-01  1.14345644E+00
  1.00000000E+00  1.00000000E+00  3.34946043E-02  2.34726953E-01  8.13757326E-01
  1.00000000E+00  3.34946043E-02  2.34726953E-01  8.13757326E-01  1.00000000E+00
  3.34946043E-02  2.34726953E-01  8.13757326E-01  1.00000000E+00  3.34946043E-02
  2.34726953E-01  8.13757326E-01  1.00000000E+00  3.34946043E-02  2.34726953E-01
  8.13757326E-01  1.00000000E+00  3.34946043E-02  2.34726953E-01  8.13757326E-01
  1.00000000E+00  3.34946043E-02  2.34726953E-01  8.13757326E-01  1.00000000E+00
  3.34946043E-02  2.34726953E-01  8.13757326E-01  1.00000000E+00
P(S=P) Contraction coefficients            R   N=         109
  0.00000000E+00  0.00000000E+00  0.00000000E+00  0.00000000E+00  0.00000000E+00
  0.00000000E+00  7.08742682E-02  3.39752839E-01  7.27158577E-01  1.00000000E+00
  0.00000000E+00  0.00000000E+00  0.00000000E+00  0.00000000E+00  0.00000000E+00
  0.00000000E+00  0.00000000E+00  7.08742682E-02  3.39752839E-01  7.27158577E-01
  1.00000000E+00  0.00000000E+00  0.00000000E+00  0.00000000E+00  0.00000000E+00
  0.00000000E+00  0.00000000E+00  0.00000000E+00  7.08742682E-02  3.39752839E-01
  7.27158577E-01  1.00000000E+00  0.00000000E+00  0.00000000E+00  0.00000000E+00
  0.00000000E+00  0.00000000E+00  0.00000000E+00  0.00000000E+00  6.89990666E-02
  3.16423961E-01  7.44308291E-01  1.00000000E+00  0.00000000E+00  0.00000000E+00
  0.00000000E+00  0.00000000E+00  0.00000000E+00  0.00000000E+00  0.00000000E+00
  6.89990666E-02  3.16423961E-01  7.44308291E-01  1.00000000E+00  0.00000000E+00
  0.00000000E+00  0.00000000E+00  0.00000000E+00  0.00000000E+00  0.00000000E+00
  0.00000000E+00  6.89990666E-02  3.16423961E-01  7.44308291E-01  1.00000000E+00
  0.00000000E+00  0.00000000E+00  0.00000000E+00  0.00000000E+00  0.00000000E+00
  0.00000000E+00  0.00000000E+00  6.89990666E-02  3.16423961E-01  7.44308291E-01
  1.00000000E+00  0.00000000E+00  0.00000000E+00  0.00000000E+00  0.00000000E+00
  0.00000000E+00  0.00000000E+00  0.00000000E+00  0.00000000E+00  0.00000000E+00
  0.00000000E+00  0.00000000E+00  0.00000000E+00  0.00000000E+00  0.00000000E+00
  0.00000000E+00  0.00000000E+00  0.00000000E+00  0.00000000E+00  0.00000000E+00
  0.00000000E+00  0.00000000E+00  0.00000000E+00  0.00000000E+00  0.00000000E+00
  0.00000000E+00  0.00000000E+00  0.00000000E+00  0.00000000E+00  0.00000000E+00
  0.00000000E+00  0.00000000E+00  0.00000000E+00  0.00000000E+00
Coordinates of each shell                  R   N=         132
  3.51874724E+00 -1.40421055E+00 -9.11334126E-02  3.51874724E+00 -1.40421055E+00
 -9.11334126E-02  3.51874724E+00 -1.40421055E+00 -9.11334126E-02  3.51874724E+00
 -1.40421055E+00 -9.11334126E-02 -8.70749052E-01  3.04331707E+00 -5.15751403E-01
 -8.70749052E-01  3.04331707E+00 -5.15751403E-01 -8.70749052E-01  3.04331707E+00
 -5.15751403E-01 -8.70749052E-01  3.04331707E+00 -5.15751403E-01 -3.99845587E+00
 -1.03740153E+00 -4.56550823E-01 -3.99845587E+00 -1.03740153E+00 -4.56550823E-01
 -3.99845587E+00 -1.03740153E+00 -4.56550823E-01 -3.99845587E+00 -1.03740153E+00
 -4.56550823E-01  6.63493429E-02  6.24795949E-01  8.51882025E-02  6.63493429E-02
  6.24795949E-01  8.51882025E-02  6.63493429E-02  6.24795949E-01  8.51882025E-02
  6.63493429E-02  6.24795949E-01  8.51882025E-02  2.57407891E+00  6.15752624E-01
  1.51362118E+00  2.57407891E+00  6.15752624E-01  1.51362118E+00  2.57407891E+00
  6.15752624E-01  1.51362118E+00  2.57407891E+00  6.15752624E-01  1.51362118E+00
  1.56191471E+00 -8.30974043E-01 -1.94063555E+00  1.56191471E+00 -8.30974043E-01
 -1.94063555E+00  1.56191471E+00 -8.30974043E-01 -1.94063555E+00  1.56191471E+00
 -8.30974043E-01 -1.94063555E+00 -1.96405723E+00 -9.53679703E-01  1.32894922E+00
 -1.96405723E+00 -9.53679703E-01  1.32894922E+00 -1.96405723E+00 -9.53679703E-01
  1.32894922E+00 -1.96405723E+00 -9.53679703E-01  1.32894922E+00  3.60958645E+00
  2.38991197E+00  1.23183137E+00  3.60958645E+00  2.38991197E+00  1.23183137E+00
  2.58138357E+00  9.15566612E-02  3.51707450E+00  2.58138357E+00  9.15566612E-02
  3.51707450E+00  7.32621511E-01 -2.53936548E+00 -2.75872290E+00  7.32621511E-01
 -2.53936548E+00 -2.75872290E+00  2.25267857E+00  4.35795140E-01 -3.42905259E+00
  2.25267857E+00  4.35795140E-01 -3.42905259E+00 -2.55307591E+00 -3.14539238E-02
  3.09371589E+00 -2.55307591E+00 -3.14539238E-02  3.09371589E+00 -1.22984242E+00
 -2.84557428E+00  1.75766292E+00 -1.22984242E+00 -2.84557428E+00  1.75766292E+00
 -2.56563876E+00  2.75335271E+00 -1.18720915E+00 -2.56563876E+00  2.75335271E+00
 -1.18720915E+00 -5.45376594E+00 -1.80323162E+00  3.59446753E-01 -5.45376594E+00
 -1.80323162E+00  3.59446753E-01
Constraint Structure                       R   N=          45
  3.51874724E+00 -1.40421055E+00 -9.11334126E-02 -8.70749052E-01  3.04331707E+00
 -5.15751403E-01 -3.99845587E+00 -1.03740153E+00 -4.56550823E-01  6.63493429E-02
  6.24795949E-01  8.51882025E-02  2.57407891E+00  6.15752624E-01  1.51362118E+00
  1.56191471E+00 -8.30974043E-01 -1.94063555E+00 -1.96405723E+00 -9.53679703E-01
  1.32894922E+00  3.60958645E+00  2.38991197E+00  1.23183137E+00  2.58138357E+00
  9.15566612E-02  3.51707450E+00  7.32621511E-01 -2.53936548E+00 -2.75872290E+00
  2.25267857E+00  4.35795140E-01 -3.42905259E+00 -2.55307591E+00 -3.14539238E-02
  3.09371589E+00 -1.22984242E+00 -2.84557428E+00  1.75766292E+00 -2.56563876E+00
  2.75335271E+00 -1.18720915E+00 -5.45376594E+00 -1.80323162E+00  3.59446753E-01
Num ILSW                                   I              100
ILSW                                       I   N=         100
           0           1           0           0           2           0
           0           0           0           0           0          -1
           0           0           0           0           0           0
           0           0           0           0           1           0
           1           0           0           0           0           0
           0           0      100000           0          -1           0
           0           0           0           0           0           0
           0           0           0           1           1           0
           0           0           1           0           0           0
           0           0           4          40           0           0
           0           0           0           0           0           0
           0           0           0           0           0           0
           0           0           0           0           0           0
           0           0           0           0           0           0
           0           0           0           0           0           0
           0           0           0           0           0           0
           0           0           0           0
Num RLSW                                   I               40
RLSW                                       R   N=          40
  1.00000000E+00  1.00000000E+00  1.00000000E+00  1.00000000E+00  1.00000000E+00
  0.00000000E+00  0.00000000E+00  1.00000000E+00  0.00000000E+00  0.00000000E+00
  0.00000000E+00  0.00000000E+00  1.00000000E+00  0.00000000E+00  0.00000000E+00
  0.00000000E+00  0.00000000E+00  1.00000000E+00  0.00000000E+00  0.00000000E+00
  0.00000000E+00  0.00000000E+00  1.00000000E+00  0.00000000E+00  0.00000000E+00
  0.00000000E+00  0.00000000E+00  1.00000000E+00  0.00000000E+00  0.00000000E+00
  0.00000000E+00  0.00000000E+00  0.00000000E+00  0.00000000E+00  0.00000000E+00
  0.00000000E+00  0.00000000E+00  0.00000000E+00  1.00000000E+00  1.00000000E+00
MxBond                                     I                4
NBond                                      I   N=          15
           2           2           2           4           4           4
           4           1           1           1           1           1
           1           1           1
IBond                                      I   N=          60
           5           6           0           0           4          14
           0           0           7          15           0           0
           2           5           6           7           1           4
           8           9           1           4          10          11
           3           4          12          13           5           0
           0           0           5           0           0           0
           6           0           0           0           6           0
           0           0           7           0           0           0
           7           0           0           0           2           0
           0           0           3           0           0           0
RBond                                      R   N=          60
  1.00000000E+00  1.00000000E+00  0.00000000E+00  0.00000000E+00  1.00000000E+00
  1.00000000E+00  0.00000000E+00  0.00000000E+00  1.00000000E+00  1.00000000E+00
  0.00000000E+00  0.00000000E+00  1.00000000E+00  1.00000000E+00  1.00000000E+00
  1.00000000E+00  1.00000000E+00  1.00000000E+00  1.00000000E+00  1.00000000E+00
  1.00000000E+00  1.00000000E+00  1.00000000E+00  1.00000000E+00  1.00000000E+00
  1.00000000E+00  1.00000000E+00  1.00000000E+00  1.00000000E+00  0.00000000E+00
  0.00000000E+00  0.00000000E+00  1.00000000E+00  0.00000000E+00  0.00000000E+00
  0.00000000E+00  1.00000000E+00  0.00000000E+00  0.00000000E+00  0.00000000E+00
  1.00000000E+00  0.00000000E+00  0.00000000E+00  0.00000000E+00  1.00000000E+00
  0.00000000E+00  0.00000000E+00  0.00000000E+00  1.00000000E+00  0.00000000E+00
  0.00000000E+00  0.00000000E+00  1.00000000E+00  0.00000000E+00  0.00000000E+00
  0.00000000E+00  1.00000000E+00  0.00000000E+00  0.00000000E+00  0.00000000E+00
Virial Ratio                               R      2.002431151312988E+00
SCF Energy                                 R     -3.806459548843646E+02
MP2 Energy                                 R     -3.817005989159375E+02
Total Energy                               R     -3.817005989159375E+02
Post-SCF wavefunction norm                 R      1.621371578879884E+00
RMS Force                                  R      6.679932319970703E-07
RMS Density                                R      1.677005322098315E-09
External E-field                           R   N=          35
  0.00000000E+00  0.00000000E+00  0.00000000E+00  0.00000000E+00  0.00000000E+00
  0.00000000E+00  0.00000000E+00  0.00000000E+00  0.00000000E+00  0.00000000E+00
  0.00000000E+00  0.00000000E+00  0.00000000E+00  0.00000000E+00  0.00000000E+00
  0.00000000E+00  0.00000000E+00  0.00000000E+00  0.00000000E+00  0.00000000E+00
  0.00000000E+00  0.00000000E+00  0.00000000E+00  0.00000000E+00  0.00000000E+00
  0.00000000E+00  0.00000000E+00  0.00000000E+00  0.00000000E+00  0.00000000E+00
  0.00000000E+00  0.00000000E+00  0.00000000E+00  0.00000000E+00  0.00000000E+00
IOpCl                                      I                0
IROHF                                      I                0
Alpha Orbital Energies                     R   N=         121
 -2.05884790E+01 -2.05667024E+01 -2.05559302E+01 -1.12934135E+01 -1.12913559E+01
 -1.12791569E+01 -1.12740117E+01 -1.39570575E+00 -1.37141805E+00 -1.34923737E+00
 -1.03513270E+00 -9.34518951E-01 -9.16506716E-01 -7.57288163E-01 -7.28036540E-01
 -7.02121159E-01 -6.74087493E-01 -6.55634161E-01 -6.15160191E-01 -5.94473444E-01
 -5.67021931E-01 -5.45801876E-01 -5.37826274E-01 -5.08783312E-01 -4.71743953E-01
 -4.67531742E-01 -4.30100777E-01 -4.10273605E-01  1.97723778E-01  2.44506689E-01
  2.56719351E-01  2.80691804E-01  2.92557991E-01  3.00918224E-01  3.06393261E-01
  3.17772129E-01  3.48255350E-01  3.72044150E-01  3.78073093E-01  4.17854010E-01
  4.29542979E-01  4.88741460E-01  5.15365190E-01  7.36182772E-01  7.49074023E-01
  7.57037329E-01  7.97863008E-01  8.04025137E-01  8.29339900E-01  8.64652747E-01
  8.91780075E-01  9.41798371E-01  9.79423966E-01  1.00270699E+00  1.04283156E+00
  1.07106258E+00  1.09795570E+00  1.10592507E+00  1.12632950E+00  1.13643755E+00
  1.14311548E+00  1.16787403E+00  1.17824844E+00  1.18988635E+00  1.22291625E+00
  1.24088728E+00  1.26596916E+00  1.29854189E+00  1.32654152E+00  1.37464748E+00
  1.40476675E+00  1.45819890E+00  1.52389804E+00  1.57636645E+00  1.58399420E+00
  1.62755761E+00  1.64930416E+00  1.73427468E+00  1.81844537E+00  1.87409805E+00
  1.91952120E+00  1.94237853E+00  1.99056973E+00  2.02859146E+00  2.05394070E+00
  2.13270021E+00  2.18764818E+00  2.21256611E+00  2.22508514E+00  2.27337989E+00
  2.27851139E+00  2.34751378E+00  2.37541287E+00  2.41197228E+00  2.42755679E+00
  2.48188709E+00  2.50065394E+00  2.58457085E+00  2.61009288E+00  2.65449432E+00
  2.66446281E+00  2.70101087E+00  2.71732621E+00  2.76224438E+00  2.86685793E+00
  2.90043764E+00  2.93516331E+00  2.98330236E+00  3.03693753E+00  3.09792801E+00
  3.14082649E+00  3.25616691E+00  3.31185733E+00  3.35372735E+00  4.16710942E+00
  4.31663601E+00  4.45100399E+00  4.64045151E+00  4.74165541E+00  4.86687336E+00
  5.14768574E+00
Alpha MO coefficients                      R   N=       14641
  3.45290505E-07 -9.32034691E-06  4.27536601E-06 -4.01649835E-07 -1.61331417E-06
  7.32962681E-05 -7.73721023E-06  2.51145557E-05  2.96511624E-05 -1.44237751E-05
 -1.93012056E-06 -1.41659211E-05  3.74834539E-06 -5.28792916E-06  3.31357639E-06
 -1.20415635E-04 -4.27666908E-05  1.54122933E-05 -1.33430773E-05  1.60254607E-05
  2.88841650E-04 -1.60098220E-04  8.66052375E-06 -9.16563850E-05 -2.57454715E-05
 -4.11681768E-05 -1.90101319E-05  6.60130623E-06  5.75492569E-06  1.53598619E-05
  9.94646146E-01  2.11385031E-02 -1.20134740E-04 -4.23434532E-04  1.17864312E-03
  3.95309733E-03  8.93211773E-05  2.76357579E-04 -6.37767076E-04 -4.20414716E-03
 -3.92601144E-03 -4.11268627E-03 -8.54811327E-05 -8.24315685E-05  5.45494867E-05
 -5.99105284E-07  3.00669746E-05 -2.31015847E-05  1.25117416E-05 -2.99554366E-05
  2.37911117E-04  5.03664560E-04  5.74342985E-05  1.74113708E-04 -5.35208153E-05
 -4.42665846E-06 -5.34526149E-07 -2.96587188E-05  2.48366354E-06 -2.50594889E-06
  5.44968473E-06  3.55516192E-05  1.79101200E-05  7.63693064E-06  6.84051634E-06
 -4.64006358E-04  1.23961916E-04 -2.62440611E-05  1.38540481E-04 -1.52520924E-06
  1.83011308E-07  4.83391725E-06  1.26636254E-06 -3.87137237E-06 -1.65679406E-06
  7.14774941E-08 -1.55088312E-05 -2.63077217E-05  4.66814104E-07 -1.84399840E-06
  1.06716207E-05  2.48267287E-05 -5.80384564E-05 -6.38084950E-05  2.47323114E-05
 -7.57866447E-07 -1.94972938E-06 -6.79494309E-06  6.59202250E-06 -1.64836164E-05
 -2.85674996E-05  1.73373065E-04 -2.38023903E-04 -1.03400444E-05 -2.33395195E-04
  3.12076009E-04 -1.27366403E-04  3.14391727E-05  4.33687572E-05  3.08039351E-05
 -6.48967729E-05 -4.17660245E-06  1.99629311E-05  7.53994934E-05 -8.07637349E-07
  1.91322980E-05  3.77412505E-05  7.40785773E-06 -8.95787329E-06  3.49105870E-05
 -1.09984562E-04 -1.16006872E-05  1.25907412E-06 -4.98784178E-05 -9.88810712E-05
 -2.95755512E-05 -2.66032417E-05 -2.31541180E-05 -2.87435710E-04  4.34582960E-04
 -2.19790364E-04  1.36920319E-04 -1.14083037E-05  6.72035834E-06 -3.67805186E-06
  4.08234918E-06  5.21386549E-05 -5.93843351E-05  1.02841046E-05 -3.92094442E-05
 -5.18356587E-06 -1.07308970E-05 -1.72977959E-05 -4.33660955E-06  8.43810151E-06
 -3.49876428E-06  9.94659414E-01  2.12049082E-02 -6.08450631E-04 -1.12786591E-03
 -1.46069713E-04  3.74970936E-03  3.27779186E-04  6.20218416E-04  7.18633225E-05
 -4.06648341E-03 -4.12832251E-03 -3.88267154E-03  5.19873224E-05 -1.16026006E-04
  4.88895015E-05  1.13123928E-04  2.24449425E-05  1.05462047E-05 -4.91135515E-06
  3.98402354E-07 -6.36354860E-05 -7.14608926E-05 -1.52652076E-05 -1.63556473E-05
 -1.25090799E-05  9.28183146E-06  4.99237003E-06 -1.78072879E-05  4.17171877E-07
 -1.84858037E-06 -2.90353388E-05  2.16462305E-04 -7.91014613E-05  3.47557874E-04
 -6.76902867E-05  4.61376094E-04 -3.59587724E-04 -2.60598349E-04 -1.37076715E-04
 -4.23019327E-05  4.51189008E-06 -6.55772313E-05 -2.91173170E-05 -8.94656480E-06
 -3.25939087E-05  3.08165778E-06  3.63437139E-05 -1.69206686E-05  5.69662565E-06
 -2.45312030E-06  1.26017419E-04  5.86582979E-05 -3.76827535E-05 -1.07483158E-05
 -1.67948235E-05 -1.33055755E-05  6.15851921E-06  1.66532574E-05 -1.58935795E-05
  1.94015082E-05  9.02151708E-06  6.95842013E-05  1.60110931E-06 -1.66980649E-05
 -6.77912346E-06 -3.13970026E-04  1.48502044E-04  1.25177789E-05 -8.79750172E-05
 -2.42668835E-05 -1.54352055E-05  1.25972179E-05  2.61904718E-05  8.20128736E-06
 -5.34636876E-06 -8.68482380E-06  1.22247558E-05 -2.93167647E-05 -5.95767820E-05
  2.19736487E-05 -1.30874815E-04 -1.29171941E-04  7.89327357E-06  8.59642558E-05
 -2.57345029E-05 -6.66469487E-05 -4.11012584E-05 -1.55038364E-05  2.25908719E-05
  2.19594157E-05  4.23510366E-05 -1.04524247E-04 -7.51179186E-06  4.15235587E-06
  2.23999711E-05  6.41721623E-05  2.01732124E-05 -5.26840834E-05 -2.38433343E-07
 -7.80146317E-05  1.11551666E-05  3.48288566E-05  4.23198848E-04 -2.50017660E-04
 -9.92875592E-07 -2.69825008E-05  9.94730697E-01  2.12305590E-02 -9.67477113E-04
  9.20284632E-04 -9.32539202E-05  3.14693737E-03  6.34837049E-04 -6.44374865E-04
  8.59104499E-05 -3.85100058E-03 -3.87054988E-03 -3.95616055E-03  1.60505809E-04
 -1.29238133E-04 -1.27600988E-04 -1.61611127E-04 -1.01397855E-04 -2.29559597E-06
  6.49572478E-06 -1.45980931E-06  6.10231558E-04  1.14101637E-04 -1.88236202E-04
  2.37309424E-05 -4.47866756E-05 -4.01063214E-05 -6.45183858E-05 -2.19322769E-05
  3.15235476E-06 -4.70405181E-07 -6.40753638E-06 -1.43209066E-05 -2.93756074E-06
  1.70441957E-06  1.17654136E-06  7.67270859E-05  4.02098207E-05 -4.37091785E-06
 -1.79655941E-06 -2.08898285E-06 -6.44370610E-06 -1.53705009E-05  5.04384925E-07
  3.68780275E-06 -4.94626373E-07  6.67758424E-06 -1.81533540E-05 -3.22832018E-05
  3.51011736E-05 -9.96739161E-06 -4.63865376E-04 -1.95507404E-04 -5.90398008E-04
  3.08004733E-04  2.15440108E-05 -1.87440167E-05 -7.63868363E-06 -4.75652015E-06
 -5.57791778E-06  4.91540127E-06 -1.66157131E-05  2.18817341E-04  1.61406653E-04
 -3.01355781E-04 -2.24885904E-04  2.75014413E-04 -1.30689172E-04  2.32839124E-04
 -2.21157908E-04 -2.64798103E-05  3.88468118E-05  1.36542301E-05 -5.04287127E-05
 -2.51234604E-05  7.03303276E-05 -1.95262271E-05  1.97419443E-04  3.02423166E-04
 -1.00329608E-04  2.54886516E-04  3.25293632E-04 -5.89570436E-05  3.51941281E-04
  6.31161037E-05  2.81544985E-05 -3.04877672E-05  2.70848408E-05 -3.34196817E-05
  8.64353677E-05 -1.65495676E-05  1.03068382E-05  4.84405939E-05  4.07377276E-06
  2.64301098E-06 -1.68306842E-06 -4.39295477E-04 -1.96335072E-04 -1.04304357E-05
  1.11771773E-04 -6.63519611E-06  2.35911567E-05  1.72959534E-05  3.27603857E-06
  5.01132522E-06  7.22206759E-07 -5.10340517E-05 -1.18874291E-04  2.20285553E-06
  4.43865252E-05  1.46892927E-06  4.86509317E-05 -5.41654508E-05 -1.18547859E-04
  4.39822392E-06 -1.71199920E-05  3.39639018E-05  2.13362723E-05 -1.50103572E-05
  2.18492212E-05  2.87516638E-06 -1.46812664E-05  9.31778008E-05  4.22107982E-04
 -5.59230785E-05  9.64246109E-06  1.35913866E-05 -2.40436083E-03  7.35861068E-04
 -3.10968194E-04 -8.68534014E-05  2.06303802E-04  2.72400055E-04  2.80005235E-04
  2.23159429E-05  8.63349097E-06 -1.26597494E-05 -9.92312438E-05 -3.85977187E-04
  1.42011302E-05  7.77409267E-05 -3.73658717E-05  1.78551494E-03  2.15498316E-04
 -6.02628974E-04  9.38021488E-05 -1.84324849E-04 -2.13587533E-04 -3.14281287E-04
  6.24837338E-05 -5.65068192E-05 -4.65926735E-05 -1.73996483E-04 -3.50624104E-05