018_BenCl Gaussian SP Calculation on node35.bme.utexas.edu              
Freq      RMP2-FC                                                     6-31G(d)            
Number of atoms                            I               12
Info1-9                                    I   N=           9
          23          22        1002           0           0         100
           6           2           1
Charge                                     I                0
Multiplicity                               I                1
Number of electrons                        I               58
Number of alpha electrons                  I               29
Number of beta electrons                   I               29
Number of basis functions                  I              119
Number of independent functions            I              119
Number of point charges in /Mol/           I                0
Number of translation vectors              I                0
Atomic numbers                             I   N=          12
          17           6           6           6           6           6
           6           1           1           1           1           1
Nuclear charges                            R   N=          12
  1.70000000E+01  6.00000000E+00  6.00000000E+00  6.00000000E+00  6.00000000E+00
  6.00000000E+00  6.00000000E+00  1.00000000E+00  1.00000000E+00  1.00000000E+00
  1.00000000E+00  1.00000000E+00
Current cartesian coordinates              R   N=          36
  4.25731990E+00 -1.16733163E-06 -9.21530413E-05  9.64462203E-01  2.47349791E-06
 -2.09961633E-05 -3.28631706E-01 -2.29708005E+00  3.87389861E-05 -3.28632567E-01
  2.29708341E+00 -2.47740117E-05 -2.96628739E+00 -2.28202454E+00  9.59242435E-05
 -2.96628560E+00  2.28202431E+00  3.27342894E-05 -4.29114316E+00 -1.90237014E-06
  9.29397455E-05  7.18348908E-01 -4.06261224E+00  4.05052343E-05  7.18352298E-01
  4.06261405E+00 -7.16616812E-05 -3.98361148E+00 -4.06682284E+00  1.42674379E-04
 -3.98361634E+00  4.06681836E+00  2.99609881E-05 -6.34480240E+00  3.67364610E-07
  1.37720244E-04
Force Field                                I                0
Int Atom Types                             I   N=          12
           0           0           0           0           0           0
           0           0           0           0           0           0
MM charges                                 R   N=          12
  0.00000000E+00  0.00000000E+00  0.00000000E+00  0.00000000E+00  0.00000000E+00
  0.00000000E+00  0.00000000E+00  0.00000000E+00  0.00000000E+00  0.00000000E+00
  0.00000000E+00  0.00000000E+00
Integer atomic weights                     I   N=          12
          35          12          12          12          12          12
          12           1           1           1           1           1
Real atomic weights                        R   N=          12
  3.49688527E+01  1.20000000E+01  1.20000000E+01  1.20000000E+01  1.20000000E+01
  1.20000000E+01  1.20000000E+01  1.00782504E+00  1.00782504E+00  1.00782504E+00
  1.00782504E+00  1.00782504E+00
Atom fragment info                         I   N=          12
           0           0           0           0           0           0
           0           0           0           0           0           0
Atom residue num                           I   N=          12
           0           0           0           0           0           0
           0           0           0           0           0           0
Nuclear spins                              I   N=          12
           3           0           0           0           0           0
           0           1           1           1           1           1
Nuclear ZEff                               R   N=          12
 -1.42400000E+01 -3.60000000E+00 -3.60000000E+00 -3.60000000E+00 -3.60000000E+00
 -3.60000000E+00 -3.60000000E+00 -1.00000000E+00 -1.00000000E+00 -1.00000000E+00
 -1.00000000E+00 -1.00000000E+00
Nuclear QMom                               R   N=          12
 -8.16500000E+00  0.00000000E+00  0.00000000E+00  0.00000000E+00  0.00000000E+00
  0.00000000E+00  0.00000000E+00  0.00000000E+00  0.00000000E+00  0.00000000E+00
  0.00000000E+00  0.00000000E+00
Nuclear GFac                               R   N=          12
  8.21874000E-01  0.00000000E+00  0.00000000E+00  0.00000000E+00  0.00000000E+00
  0.00000000E+00  0.00000000E+00  2.79284600E+00  2.79284600E+00  2.79284600E+00
  2.79284600E+00  2.79284600E+00
MicOpt                                     I   N=          12
          -1          -1          -1          -1          -1          -1
          -1          -1          -1          -1          -1          -1
Number of contracted shells                I               39
Number of primitive shells                 I              103
Pure/Cartesian d shells                    I                1
Pure/Cartesian f shells                    I                0
Highest angular momentum                   I                2
Largest degree of contraction              I                6
Shell types                                I   N=          39
           0          -1          -1          -1           2           0
          -1          -1           2           0          -1          -1
           2           0          -1          -1           2           0
          -1          -1           2           0          -1          -1
           2           0          -1          -1           2           0
           0           0           0           0           0           0
           0           0           0
Number of primitives per shell             I   N=          39
           6           6           3           1           1           6
           3           1           1           6           3           1
           1           6           3           1           1           6
           3           1           1           6           3           1
           1           6           3           1           1           3
           1           3           1           3           1           3
           1           3           1
Shell to atom map                          I   N=          39
           1           1           1           1           1           2
           2           2           2           3           3           3
           3           4           4           4           4           5
           5           5           5           6           6           6
           6           7           7           7           7           8
           8           9           9          10          10          11
          11          12          12
Primitive exponents                        R   N=         103
  2.51801000E+04  3.78035000E+03  8.60474000E+02  2.42145000E+02  7.73349000E+01
  2.62470000E+01  4.91765000E+02  1.16984000E+02  3.74153000E+01  1.37834000E+01
  5.45215000E+00  2.22588000E+00  3.18649000E+00  1.14427000E+00  4.20377000E-01
  1.42657000E-01  7.50000000E-01  3.04752488E+03  4.57369518E+02  1.03948685E+02
  2.92101553E+01  9.28666296E+00  3.16392696E+00  7.86827235E+00  1.88128854E+00
  5.44249258E-01  1.68714478E-01  8.00000000E-01  3.04752488E+03  4.57369518E+02
  1.03948685E+02  2.92101553E+01  9.28666296E+00  3.16392696E+00  7.86827235E+00
  1.88128854E+00  5.44249258E-01  1.68714478E-01  8.00000000E-01  3.04752488E+03
  4.57369518E+02  1.03948685E+02  2.92101553E+01  9.28666296E+00  3.16392696E+00
  7.86827235E+00  1.88128854E+00  5.44249258E-01  1.68714478E-01  8.00000000E-01
  3.04752488E+03  4.57369518E+02  1.03948685E+02  2.92101553E+01  9.28666296E+00
  3.16392696E+00  7.86827235E+00  1.88128854E+00  5.44249258E-01  1.68714478E-01
  8.00000000E-01  3.04752488E+03  4.57369518E+02  1.03948685E+02  2.92101553E+01
  9.28666296E+00  3.16392696E+00  7.86827235E+00  1.88128854E+00  5.44249258E-01
  1.68714478E-01  8.00000000E-01  3.04752488E+03  4.57369518E+02  1.03948685E+02
  2.92101553E+01  9.28666296E+00  3.16392696E+00  7.86827235E+00  1.88128854E+00
  5.44249258E-01  1.68714478E-01  8.00000000E-01  1.87311370E+01  2.82539436E+00
  6.40121692E-01  1.61277759E-01  1.87311370E+01  2.82539436E+00  6.40121692E-01
  1.61277759E-01  1.87311370E+01  2.82539436E+00  6.40121692E-01  1.61277759E-01
  1.87311370E+01  2.82539436E+00  6.40121692E-01  1.61277759E-01  1.87311370E+01
  2.82539436E+00  6.40121692E-01  1.61277759E-01
Contraction coefficients                   R   N=         103
  1.83295985E-03  1.40341988E-02  6.90973943E-02  2.37451980E-01  4.83033960E-01
  3.39855972E-01 -2.29739142E-03 -3.07137189E-02 -1.12528069E-01  4.50163278E-02
  5.89353363E-01  4.65206287E-01 -2.51828028E-01  6.15892514E-02  1.06018433E+00
  1.00000000E+00  1.00000000E+00  1.83473713E-03  1.40373228E-02  6.88426223E-02
  2.32184443E-01  4.67941348E-01  3.62311985E-01 -1.19332420E-01 -1.60854152E-01
  1.14345644E+00  1.00000000E+00  1.00000000E+00  1.83473713E-03  1.40373228E-02
  6.88426223E-02  2.32184443E-01  4.67941348E-01  3.62311985E-01 -1.19332420E-01
 -1.60854152E-01  1.14345644E+00  1.00000000E+00  1.00000000E+00  1.83473713E-03
  1.40373228E-02  6.88426223E-02  2.32184443E-01  4.67941348E-01  3.62311985E-01
 -1.19332420E-01 -1.60854152E-01  1.14345644E+00  1.00000000E+00  1.00000000E+00
  1.83473713E-03  1.40373228E-02  6.88426223E-02  2.32184443E-01  4.67941348E-01
  3.62311985E-01 -1.19332420E-01 -1.60854152E-01  1.14345644E+00  1.00000000E+00
  1.00000000E+00  1.83473713E-03  1.40373228E-02  6.88426223E-02  2.32184443E-01
  4.67941348E-01  3.62311985E-01 -1.19332420E-01 -1.60854152E-01  1.14345644E+00
  1.00000000E+00  1.00000000E+00  1.83473713E-03  1.40373228E-02  6.88426223E-02
  2.32184443E-01  4.67941348E-01  3.62311985E-01 -1.19332420E-01 -1.60854152E-01
  1.14345644E+00  1.00000000E+00  1.00000000E+00  3.34946043E-02  2.34726953E-01
  8.13757326E-01  1.00000000E+00  3.34946043E-02  2.34726953E-01  8.13757326E-01
  1.00000000E+00  3.34946043E-02  2.34726953E-01  8.13757326E-01  1.00000000E+00
  3.34946043E-02  2.34726953E-01  8.13757326E-01  1.00000000E+00  3.34946043E-02
  2.34726953E-01  8.13757326E-01  1.00000000E+00
P(S=P) Contraction coefficients            R   N=         103
  0.00000000E+00  0.00000000E+00  0.00000000E+00  0.00000000E+00  0.00000000E+00
  0.00000000E+00  3.98940088E-03  3.03177067E-02  1.29880029E-01  3.27951072E-01
  4.53527100E-01  2.52154056E-01 -1.42993147E-02  3.23572333E-01  7.43507765E-01
  1.00000000E+00  0.00000000E+00  0.00000000E+00  0.00000000E+00  0.00000000E+00
  0.00000000E+00  0.00000000E+00  0.00000000E+00  6.89990666E-02  3.16423961E-01
  7.44308291E-01  1.00000000E+00  0.00000000E+00  0.00000000E+00  0.00000000E+00
  0.00000000E+00  0.00000000E+00  0.00000000E+00  0.00000000E+00  6.89990666E-02
  3.16423961E-01  7.44308291E-01  1.00000000E+00  0.00000000E+00  0.00000000E+00
  0.00000000E+00  0.00000000E+00  0.00000000E+00  0.00000000E+00  0.00000000E+00
  6.89990666E-02  3.16423961E-01  7.44308291E-01  1.00000000E+00  0.00000000E+00
  0.00000000E+00  0.00000000E+00  0.00000000E+00  0.00000000E+00  0.00000000E+00
  0.00000000E+00  6.89990666E-02  3.16423961E-01  7.44308291E-01  1.00000000E+00
  0.00000000E+00  0.00000000E+00  0.00000000E+00  0.00000000E+00  0.00000000E+00
  0.00000000E+00  0.00000000E+00  6.89990666E-02  3.16423961E-01  7.44308291E-01
  1.00000000E+00  0.00000000E+00  0.00000000E+00  0.00000000E+00  0.00000000E+00
  0.00000000E+00  0.00000000E+00  0.00000000E+00  6.89990666E-02  3.16423961E-01
  7.44308291E-01  1.00000000E+00  0.00000000E+00  0.00000000E+00  0.00000000E+00
  0.00000000E+00  0.00000000E+00  0.00000000E+00  0.00000000E+00  0.00000000E+00
  0.00000000E+00  0.00000000E+00  0.00000000E+00  0.00000000E+00  0.00000000E+00
  0.00000000E+00  0.00000000E+00  0.00000000E+00  0.00000000E+00  0.00000000E+00
  0.00000000E+00  0.00000000E+00  0.00000000E+00
Coordinates of each shell                  R   N=         117
  4.25731990E+00 -1.16733163E-06 -9.21530413E-05  4.25731990E+00 -1.16733163E-06
 -9.21530413E-05  4.25731990E+00 -1.16733163E-06 -9.21530413E-05  4.25731990E+00
 -1.16733163E-06 -9.21530413E-05  4.25731990E+00 -1.16733163E-06 -9.21530413E-05
  9.64462203E-01  2.47349791E-06 -2.09961633E-05  9.64462203E-01  2.47349791E-06
 -2.09961633E-05  9.64462203E-01  2.47349791E-06 -2.09961633E-05  9.64462203E-01
  2.47349791E-06 -2.09961633E-05 -3.28631706E-01 -2.29708005E+00  3.87389861E-05
 -3.28631706E-01 -2.29708005E+00  3.87389861E-05 -3.28631706E-01 -2.29708005E+00
  3.87389861E-05 -3.28631706E-01 -2.29708005E+00  3.87389861E-05 -3.28632567E-01
  2.29708341E+00 -2.47740117E-05 -3.28632567E-01  2.29708341E+00 -2.47740117E-05
 -3.28632567E-01  2.29708341E+00 -2.47740117E-05 -3.28632567E-01  2.29708341E+00
 -2.47740117E-05 -2.96628739E+00 -2.28202454E+00  9.59242435E-05 -2.96628739E+00
 -2.28202454E+00  9.59242435E-05 -2.96628739E+00 -2.28202454E+00  9.59242435E-05
 -2.96628739E+00 -2.28202454E+00  9.59242435E-05 -2.96628560E+00  2.28202431E+00
  3.27342894E-05 -2.96628560E+00  2.28202431E+00  3.27342894E-05 -2.96628560E+00
  2.28202431E+00  3.27342894E-05 -2.96628560E+00  2.28202431E+00  3.27342894E-05
 -4.29114316E+00 -1.90237014E-06  9.29397455E-05 -4.29114316E+00 -1.90237014E-06
  9.29397455E-05 -4.29114316E+00 -1.90237014E-06  9.29397455E-05 -4.29114316E+00
 -1.90237014E-06  9.29397455E-05  7.18348908E-01 -4.06261224E+00  4.05052343E-05
  7.18348908E-01 -4.06261224E+00  4.05052343E-05  7.18352298E-01  4.06261405E+00
 -7.16616812E-05  7.18352298E-01  4.06261405E+00 -7.16616812E-05 -3.98361148E+00
 -4.06682284E+00  1.42674379E-04 -3.98361148E+00 -4.06682284E+00  1.42674379E-04
 -3.98361634E+00  4.06681836E+00  2.99609881E-05 -3.98361634E+00  4.06681836E+00
  2.99609881E-05 -6.34480240E+00  3.67364610E-07  1.37720244E-04 -6.34480240E+00
  3.67364610E-07  1.37720244E-04
Constraint Structure                       R   N=          36
  4.25731990E+00 -1.16733163E-06 -9.21530413E-05  9.64462203E-01  2.47349791E-06
 -2.09961633E-05 -3.28631706E-01 -2.29708005E+00  3.87389861E-05 -3.28632567E-01
  2.29708341E+00 -2.47740117E-05 -2.96628739E+00 -2.28202454E+00  9.59242435E-05
 -2.96628560E+00  2.28202431E+00  3.27342894E-05 -4.29114316E+00 -1.90237014E-06
  9.29397455E-05  7.18348908E-01 -4.06261224E+00  4.05052343E-05  7.18352298E-01
  4.06261405E+00 -7.16616812E-05 -3.98361148E+00 -4.06682284E+00  1.42674379E-04
 -3.98361634E+00  4.06681836E+00  2.99609881E-05 -6.34480240E+00  3.67364610E-07
  1.37720244E-04
Num ILSW                                   I              100
ILSW                                       I   N=         100
           0           1           0           0           2           0
           0           0           0           0           0          -1
           0           0           0           0           0           0
           0           0           0           0           1           0
           1           0           0           0           0           0
           0           0      100000           0          -1           0
           0           0           0           0           0           0
           0           0           0           1           1           0
           0           0           1           0           0           0
           0           0           4          40           0           0
           0           0           0           0           0           0
           0           0           0           0           0           0
           0           0           0           0           0           0
           0           0           0           0           0           0
           0           0           0           0           0           0
           0           0           0           0           0           0
           0           0           0           0
Num RLSW                                   I               40
RLSW                                       R   N=          40
  1.00000000E+00  1.00000000E+00  1.00000000E+00  1.00000000E+00  1.00000000E+00
  0.00000000E+00  0.00000000E+00  1.00000000E+00  0.00000000E+00  0.00000000E+00
  0.00000000E+00  0.00000000E+00  1.00000000E+00  0.00000000E+00  0.00000000E+00
  0.00000000E+00  0.00000000E+00  1.00000000E+00  0.00000000E+00  0.00000000E+00
  0.00000000E+00  0.00000000E+00  1.00000000E+00  0.00000000E+00  0.00000000E+00
  0.00000000E+00  0.00000000E+00  1.00000000E+00  0.00000000E+00  0.00000000E+00
  0.00000000E+00  0.00000000E+00  0.00000000E+00  0.00000000E+00  0.00000000E+00
  0.00000000E+00  0.00000000E+00  0.00000000E+00  1.00000000E+00  1.00000000E+00
MxBond                                     I                3
NBond                                      I   N=          12
           1           3           3           3           3           3
           3           1           1           1           1           1
IBond                                      I   N=          36
           2           0           0           1           3           4
           2           5           8           2           6           9
           3           7          10           4           7          11
           5           6          12           3           0           0
           4           0           0           5           0           0
           6           0           0           7           0           0
RBond                                      R   N=          36
  1.00000000E+00  0.00000000E+00  0.00000000E+00  1.00000000E+00  1.50000000E+00
  1.50000000E+00  1.50000000E+00  1.50000000E+00  1.00000000E+00  1.50000000E+00
  1.50000000E+00  1.00000000E+00  1.50000000E+00  1.50000000E+00  1.00000000E+00
  1.50000000E+00  1.50000000E+00  1.00000000E+00  1.50000000E+00  1.50000000E+00
  1.00000000E+00  1.00000000E+00  0.00000000E+00  0.00000000E+00  1.00000000E+00
  0.00000000E+00  0.00000000E+00  1.00000000E+00  0.00000000E+00  0.00000000E+00
  1.00000000E+00  0.00000000E+00  0.00000000E+00  1.00000000E+00  0.00000000E+00
  0.00000000E+00
Virial Ratio                               R      2.000993643439986E+00
SCF Energy                                 R     -6.896020306460855E+02
MP2 Energy                                 R     -6.904905958351362E+02
Total Energy                               R     -6.904905958351362E+02
Post-SCF wavefunction norm                 R      1.631040641701600E+00
RMS Force                                  R      1.196418306731749E-06
RMS Density                                R      5.328894171619328E-10
External E-field                           R   N=          35
  0.00000000E+00  0.00000000E+00  0.00000000E+00  0.00000000E+00  0.00000000E+00
  0.00000000E+00  0.00000000E+00  0.00000000E+00  0.00000000E+00  0.00000000E+00
  0.00000000E+00  0.00000000E+00  0.00000000E+00  0.00000000E+00  0.00000000E+00
  0.00000000E+00  0.00000000E+00  0.00000000E+00  0.00000000E+00  0.00000000E+00
  0.00000000E+00  0.00000000E+00  0.00000000E+00  0.00000000E+00  0.00000000E+00
  0.00000000E+00  0.00000000E+00  0.00000000E+00  0.00000000E+00  0.00000000E+00
  0.00000000E+00  0.00000000E+00  0.00000000E+00  0.00000000E+00  0.00000000E+00
IOpCl                                      I                0
IROHF                                      I                0
Alpha Orbital Energies                     R   N=         119
 -1.04825119E+02 -1.13051355E+01 -1.12526203E+01 -1.12526045E+01 -1.12510267E+01
 -1.12508465E+01 -1.12474819E+01 -1.05585492E+01 -8.02795032E+00 -8.02462169E+00
 -8.02458579E+00 -1.18652513E+00 -1.11564356E+00 -1.02802526E+00 -9.93244821E-01
 -8.42166256E-01 -8.16261507E-01 -7.07055231E-01 -6.45530834E-01 -6.42434424E-01
 -6.00140890E-01 -5.86085579E-01 -5.39533900E-01 -5.13777145E-01 -5.08430054E-01
 -4.64948684E-01 -4.51462743E-01 -3.47210049E-01 -3.32709876E-01  1.29043382E-01
  1.29682657E-01  1.95644299E-01  2.58776555E-01  2.81606234E-01  3.05108975E-01
  3.20890528E-01  3.27143604E-01  3.45493861E-01  4.29142603E-01  4.58325335E-01
  4.63093252E-01  4.64057570E-01  5.91122732E-01  6.05547459E-01  6.21396362E-01
  6.38615955E-01  6.67837818E-01  7.17749642E-01  7.46549403E-01  7.72301212E-01
  8.03358251E-01  8.15163055E-01  8.15864274E-01  8.26721230E-01  8.30035213E-01
  8.32995235E-01  8.38646201E-01  8.94608392E-01  9.00211535E-01  9.78336565E-01
  1.00030761E+00  1.07116440E+00  1.09651009E+00  1.10440695E+00  1.10568507E+00
  1.11820658E+00  1.15342938E+00  1.17418836E+00  1.17421813E+00  1.18368548E+00
  1.21082507E+00  1.24014747E+00  1.25964194E+00  1.30171849E+00  1.35213015E+00
  1.39262925E+00  1.40053254E+00  1.46698320E+00  1.49481690E+00  1.61817875E+00
  1.67118978E+00  1.67969743E+00  1.68119497E+00  1.73882807E+00  1.75521241E+00
  1.77653034E+00  1.84761517E+00  2.04164734E+00  2.08535415E+00  2.11820554E+00
  2.17494281E+00  2.28524858E+00  2.29029023E+00  2.37645466E+00  2.39184438E+00
  2.44791504E+00  2.44844338E+00  2.44886314E+00  2.46361737E+00  2.61257889E+00
  2.61542170E+00  2.62890025E+00  2.84637955E+00  2.88643274E+00  2.97738811E+00
  3.01527015E+00  3.05501372E+00  3.07441719E+00  3.07453296E+00  3.09604623E+00
  3.37644211E+00  3.74292621E+00  4.47670651E+00  4.51152932E+00  4.52466466E+00
  4.68315217E+00  4.73698540E+00  4.79311214E+00  5.07745692E+00
Alpha MO coefficients                      R   N=       14161
  9.96116821E-01  1.46445015E-02 -5.98069429E-05  9.48016078E-11  1.29151418E-09
 -1.77350911E-02  6.16724569E-05 -5.68934502E-11 -1.33234421E-09  1.42933924E-03
 -4.34395586E-05 -8.57310943E-12  9.39149036E-10  6.26416099E-03  6.26468765E-03
  6.25969842E-03  1.75924636E-12 -1.11408397E-10 -7.95957593E-11  6.08110493E-06
  8.42322440E-05  3.12953517E-05 -3.02807339E-11 -6.75960868E-10 -1.15335500E-04
  1.62254202E-04 -2.33154008E-10 -3.50972436E-09 -4.00697743E-05  3.43923739E-05
 -3.87267451E-06  1.15713190E-10  9.03742979E-10 -6.10739149E-10 -1.74211545E-06
  8.00415741E-06 -3.03881289E-06 -9.83110754E-07  7.88815261E-11  1.26223398E-04
 -1.36256075E-04  3.08371245E-05  2.52621371E-09 -2.39433658E-05 -2.09184633E-06
 -9.15692055E-06 -1.97265834E-05  6.40707453E-10  3.13678294E-10 -1.74210969E-06
  8.00422274E-06 -3.03869232E-06  9.82987369E-07  5.16157371E-11  1.26224315E-04
 -1.36256547E-04 -3.08371361E-05  3.37686417E-09 -2.39434743E-05 -2.09172941E-06
 -9.15686932E-06  1.97266134E-05  9.55364499E-11 -5.39494149E-10 -4.48404048E-07
  1.17665175E-07 -4.94437799E-06 -4.55819772E-06  1.70185651E-10 -1.20509736E-04
 -4.19191091E-05  1.30278952E-05  7.39103884E-10  2.43077709E-06 -1.96152651E-06
 -3.50156261E-06 -4.02265556E-06 -9.23945266E-11  6.34661900E-11 -4.48411380E-07
  1.17630588E-07 -4.94434933E-06  4.55824522E-06  4.38244612E-11 -1.20509948E-04
 -4.19195092E-05 -1.30285572E-05  1.09754031E-09  2.43079628E-06 -1.96150086E-06
 -3.50159556E-06  4.02270286E-06 -2.03786807E-10 -1.12145189E-10 -7.21890829E-07
 -8.04569710E-07 -3.61923474E-06 -1.57526122E-11  7.84659087E-11  4.85464824E-06
  2.06407300E-05 -3.07070195E-10 -4.52003317E-10 -2.39509756E-06 -2.43665864E-06
 -2.13565293E-06 -2.46499466E-11  6.91345711E-12  4.97714701E-12  1.13060474E-05
 -1.37346903E-05  1.13060777E-05 -1.37345887E-05  4.26507740E-06  1.11519442E-05
  4.26512225E-06  1.11521061E-05  1.90540473E-06  6.78009322E-06 -4.24427359E-05
  9.46596417E-05  8.18063903E-06 -4.54765387E-11 -1.77847201E-10  3.23326389E-04
 -2.47097238E-04  3.71623479E-10  5.34398265E-09  2.88425003E-03 -1.73146464E-03
  2.57207815E-09  3.74012537E-08 -3.51485738E-04 -2.24840019E-04 -1.31185520E-04
 -2.51299514E-10  5.49951620E-09  1.49505850E-09  9.95649625E-01  2.72165844E-02
  8.73343243E-04  3.49673630E-10 -1.89523298E-08 -1.39357233E-02 -9.01520984E-04
  1.35786831E-09  1.94930003E-08 -1.90473759E-03 -1.26188334E-03 -2.07558283E-03
 -1.34545511E-09 -4.28092775E-09 -1.29878322E-08  1.08602232E-02  8.85791346E-05
 -7.28756170E-05 -1.34216413E-04  3.42887607E-09  4.14186684E-03  8.15406614E-04
  1.48442861E-03 -3.81479833E-08 -3.57239898E-04 -3.35356227E-04 -1.31221006E-04
 -9.59397286E-05  6.98016165E-09  5.34533926E-09  1.08602438E-02  8.85785980E-05
 -7.28763404E-05  1.34216809E-04 -2.83004638E-10  4.14186424E-03  8.15414896E-04
 -1.48442757E-03  2.91450768E-09 -3.57240697E-04 -3.35355618E-04 -1.31221238E-04
  9.59390242E-05  4.32492117E-09  1.17341591E-09  9.92508045E-05  5.21891562E-07
  4.10975358E-05  1.57678212E-05 -1.12867000E-09 -1.19726620E-03 -2.35155424E-04
 -8.66860123E-04  1.71773127E-08  1.33593900E-04  4.17899188E-05  3.90760652E-05
  3.02839176E-05 -2.79024777E-09 -6.79844703E-10  9.92524661E-05  5.21227628E-07
  4.10985453E-05 -1.57680150E-05 -6.86518014E-10 -1.19725645E-03 -2.35153905E-04
  8.66857259E-04 -6.84704221E-09  1.33594975E-04  4.17899880E-05  3.90760506E-05
 -3.02842319E-05 -1.94858934E-09  5.97574490E-10 -1.93164928E-04 -1.10900935E-04
 -6.55646350E-06 -1.54848952E-10  1.40745360E-10  1.59461652E-03  8.56536886E-04
 -1.33067843E-09 -1.85572848E-08  3.41600842E-06 -7.80900381E-06 -4.05502640E-05
  1.07932742E-11 -1.09049141E-09 -5.21548002E-10 -6.94668208E-05 -1.97858053E-04
 -6.94670048E-05 -1.97859145E-04 -3.98390569E-05 -1.63070723E-04 -3.98392304E-05
 -1.63070039E-04  1.53496979E-05  1.99523414E-04  7.80166843E-10 -1.08878002E-08
 -4.42681834E-10  7.84435195E-06 -1.09228399E-10 -3.29915261E-08  1.09286009E-08
 -5.02006886E-05  6.97647653E-10  2.51940783E-07 -1.45040913E-07 -3.35611657E-05
  4.62028794E-10  8.38937711E-09 -3.76832847E-09 -2.80287698E-08 -9.52908179E-06
  1.30439794E-10  2.08930215E-10 -5.87480385E-06 -2.71737712E-07  8.89423467E-08
 -1.93671020E-04  2.68175889E-09  2.99796551E-06 -1.23437967E-06  1.79216164E-03
 -2.47597422E-08 -1.29554863E-07 -2.39019827E-07 -5.45172369E-08  1.10307982E-04
 -1.52793581E-09 -2.35940130E-09 -6.56598950E-01 -1.83265749E-02  8.50794821E-06
 -2.54366314E-04  3.27825851E-09  7.45599265E-03 -8.21771243E-05  1.01732791E-03
 -1.21167163E-08  1.19748359E-03  1.27556655E-03  1.56984383E-03 -5.58832762E-05
  1.00952271E-08  5.91481548E-09  6.57110071E-01  1.83407834E-02 -8.49593869E-06
 -2.54535481E-04  3.76201928E-09 -7.46363037E-03  8.27252553E-05  1.01904198E-03
 -1.60351282E-08 -1.19836749E-03 -1.27644808E-03 -1.57107605E-03 -5.59509277E-05
 -8.53664176E-09 -3.46446934E-09 -2.52949991E-01 -6.97104274E-03  5.45924070E-05
 -4.18759399E-05 -5.86344718E-10  4.52767705E-04 -8.74830355E-04 -2.30805972E-05
  1.92526530E-08  7.30488264E-04  6.39409915E-04  6.47416906E-04 -6.33745634E-06
 -2.01707737E-09  2.69552222E-10  2.53173308E-01  6.97702787E-03 -5.46476065E-05
 -4.18682926E-05  1.74260177E-09 -4.51771410E-04  8.75936817E-04 -2.39723329E-05
 -1.86147622E-08 -7.31108223E-04 -6.39935728E-04 -6.48050997E-04 -6.32700488E-06
  2.19123576E-09 -3.00088923E-13  2.56419639E-05  6.67855081E-07 -2.99689329E-08
 -8.42612906E-05  1.15920230E-09 -4.24008212E-07 -2.78199770E-07  5.63487259E-04
 -7.77218119E-09 -6.52430633E-08 -1.13891640E-07 -7.88870534E-08  2.30758927E-05
 -3.16292159E-10 -5.09035787E-10  1.31128717E-04 -9.54172787E-04 -1.31253750E-04
  9.54756500E-04  6.70337700E-05 -4.40588136E-04 -6.70635713E-05  4.41259783E-04
 -2.57846555E-08 -3.27178341E-09  1.96982705E-06 -2.74107975E-05 -1.03179402E-06
 -3.14195639E-09  2.72037593E-11 -8.46762864E-05  2.71798809E-05  2.00756038E-08
 -6.10728308E-10  6.44361701E-04 -3.70220825E-04  1.41935217E-08  8.00202327E-09
  2.24199434E-05 -8.82113776E-06 -7.06774081E-05  3.75837245E-09 -2.31376583E-09
 -9.88177470E-10 -1.48984942E-02 -6.88137635E-04  2.26117855E-04  7.76600415E-08
 -4.88341631E-09  7.69661019E-03 -3.17799790E-03 -7.18201680E-07  6.89257343E-08
 -3.33229428E-04 -6.11430579E-04 -1.39229361E-04 -4.54158454E-08  4.83940285E-09
  7.53702474E-09  6.50057496E-01  1.80715808E-02  1.05956391E-05  2.13913490E-04
 -3.11668190E-09 -9.84979315E-03  7.52682534E-04 -2.22216278E-03  1.40901330E-08
 -1.11673491E-03 -1.11257527E-03 -1.56126432E-03  8.74281652E-05 -1.23185121E-08
 -9.08218409E-09  6.49531545E-01  1.80569051E-02  1.06055369E-05 -2.13711349E-04
  2.80307684E-09 -9.84378138E-03  7.52599087E-04  2.22134637E-03 -4.73155996E-08
 -1.11578141E-03 -1.11156040E-03 -1.56000955E-03 -8.73827149E-05 -9.87365699E-09
 -5.21935224E-09  2.66963094E-01  7.14064956E-03 -7.27146082E-05 -1.27169844E-05
  1.72433676E-09  1.55586199E-03  1.44446088E-03  1.19786989E-03 -4.78803221E-08
 -7.65944918E-04 -6.38927938E-04 -7.67446341E-04 -1.11506804E-05  1.35426930E-10
 -1.82560583E-09  2.66773651E-01  7.13542956E-03 -7.26689575E-05  1.27475453E-05
  1.37133117E-09  1.55606422E-03  1.44376002E-03 -1.19782681E-03 -1.46454685E-08
 -7.65377738E-04 -6.38441267E-04 -7.66958256E-04  1.11565371E-05 -1.77669832E-10
 -2.29724485E-09  6.21666921E-02  1.61902207E-03 -7.27426980E-05  3.22986270E-08
  1.59604540E-09 -1.25715806E-03 -7.93982103E-04 -2.07074071E-07  1.70350271E-08
 -1.50047342E-04 -2.64449861E-04 -1.88365975E-04 -1.11709050E-08 -1.00676540E-09
  1.21547909E-09 -1.60059070E-04  7.30583083E-04 -1.59954107E-04  7.29817953E-04
 -3.36438440E-05  8.35760053E-04 -3.35924422E-05  8.35427308E-04 -6.50037804E-05
 -2.74807061E-05 -1.80297694E-06 -9.60985167E-06  1.28198546E-06 -1.20617026E-09
 -3.32389451E-11 -1.29443850E-05  6.33750206E-07  5.73993706E-09  1.61749661E-11
 -2.14878823E-04  8.70638859E-05  1.88232742E-08 -1.95789741E-09 -2.05208251E-05
 -2.67153747E-05 -1.36768036E-05 -5.23652654E-09  1.81151697E-10  2.08751476E-10
  6.14656233E-03  2.54973600E-04 -6.81174513E-05  1.62447504E-08  1.42250110E-09
 -6.84890511E-03  2.90760807E-03 -2.00301316E-07 -6.27867879E-08  2.65489503E-04
  3.85247801E-04  7.80460342E-05 -2.05678388E-08 -4.71978145E-09 -4.90041071E-09
 -2.70086773E-01 -7.82569388E-03  1.56103944E-04 -1.54692265E-04 -1.29108355E-09
  1.01418503E-02 -2.51114484E-03  2.85335805E-03  1.51520950E-08  9.02251534E-05
  2.47372432E-04  4.87765153E-04 -8.84838210E-05  1.11969288E-08  5.78394939E-09
 -2.70185272E-01 -7.82847776E-03  1.56152700E-04  1.54734591E-04 -5.57165668E-09
  1.01441656E-02 -2.51155849E-03 -2.85367747E-03  9.39652514E-08  9.02679807E-05