
    -----------------------------------------------------------------------
          Psi4: An Open-Source Ab Initio Electronic Structure Package
                               Psi4 1.3.2 release

                         Git: Rev {HEAD} ecbda83 


    R. M. Parrish, L. A. Burns, D. G. A. Smith, A. C. Simmonett,
    A. E. DePrince III, E. G. Hohenstein, U. Bozkaya, A. Yu. Sokolov,
    R. Di Remigio, R. M. Richard, J. F. Gonthier, A. M. James,
    H. R. McAlexander, A. Kumar, M. Saitow, X. Wang, B. P. Pritchard,
    P. Verma, H. F. Schaefer III, K. Patkowski, R. A. King, E. F. Valeev,
    F. A. Evangelista, J. M. Turney, T. D. Crawford, and C. D. Sherrill,
    J. Chem. Theory Comput. 13(7) pp 3185--3197 (2017).
    (doi: 10.1021/acs.jctc.7b00174)


                         Additional Contributions by
    P. Kraus, H. Kruse, M. H. Lechner, M. C. Schieber, R. A. Shaw,
    A. Alenaizan, R. Galvelis, Z. L. Glick, S. Lehtola, and J. P. Misiewicz

    -----------------------------------------------------------------------


    Psi4 started on: Sunday, 28 March 2021 01:54AM

    Process ID: 85677
    Host:       node144.bme.utexas.edu
    PSIDATADIR: /home/xy3866/psi4conda/share/psi4
    Memory:     500.0 MiB
    Threads:    8
    
  ==> Input File <==

--------------------------------------------------------------------------
#psi4
#
memory 32 gb

molecule  {
0 1
  S       -1.9906940    -0.0125100    -0.1365530
  O       -2.3617000    -0.1700640     1.4590810
  O       -2.4286150    -1.2343840    -0.7923790
  O       -2.4725380     1.3090340    -0.5392830
  C       -0.2242900    -0.0021990    -0.0874500
  C        1.8486770    -1.2201060     0.0278510
  C        1.8399080     1.2326580     0.0087760
  C        0.4429230     1.2221080    -0.0627730
  C        0.4524940    -1.2213400    -0.0491660
  C        2.5197880     0.0092800     0.0551460
  C        2.6175278    -2.5161218    -0.0167784
  C        2.5970370     2.5347130    -0.0106060
  H       -0.1225000     2.1495790    -0.1127420
  H       -0.1051200    -2.1541630    -0.0856740
  H        3.6080620     0.0137470     0.1195720
  H        2.0290960    -3.3176030     0.4912070
  H        2.8638720    -2.8264950    -0.9873940
  H        3.5515030    -2.4163920     0.5891050
  H        2.8417130     2.8282160    -1.0369270
  H        2.0062320     3.3400050     0.4339970
  H        3.5349660     2.4512730     0.5451920
  H       -2.8050090     0.6644540     1.7194690
units angstrom
no_reorient  #important for SAPT in psi4, default
symmetry c1  #important for SAPT in psi4, default
}

set PROPERTIES_ORIGIN ["COM"]
properties('MP2/aug-cc-pvtz', properties = ['dipole'])
--------------------------------------------------------------------------

  Memory set to  29.802 GiB by Python driver.
    SCF Algorithm Type (re)set to DF.

*** tstart() called on node144.bme.utexas.edu
*** at Sun Mar 28 01:54:56 2021

   => Loading Basis Set <=

    Name: AUG-CC-PVTZ
    Role: ORBITAL
    Keyword: BASIS
    atoms 1     entry S          line   902 file /home/xy3866/psi4conda/share/psi4/basis/aug-cc-pvtz.gbs 
    atoms 2-4   entry O          line   327 file /home/xy3866/psi4conda/share/psi4/basis/aug-cc-pvtz.gbs 
    atoms 5-12  entry C          line   235 file /home/xy3866/psi4conda/share/psi4/basis/aug-cc-pvtz.gbs 
    atoms 13-22 entry H          line    36 file /home/xy3866/psi4conda/share/psi4/basis/aug-cc-pvtz.gbs 


         ---------------------------------------------------------
                                   SCF
               by Justin Turney, Rob Parrish, Andy Simmonett
                          and Daniel G. A. Smith
                              RHF Reference
                        8 Threads,  30517 MiB Core
         ---------------------------------------------------------

  ==> Geometry <==

    Molecular point group: c1
    Full point group: C1

    Geometry (in Angstrom), charge = 0, multiplicity = 1:

       Center              X                  Y                   Z               Mass       
    ------------   -----------------  -----------------  -----------------  -----------------
         S           -1.898520228013    -0.008640572429    -0.124410596756    31.972071174400
         O           -2.269526228013    -0.166194572429     1.471223403244    15.994914619570
         O           -2.336441228013    -1.230514572429    -0.780236596756    15.994914619570
         O           -2.380364228013     1.312903427571    -0.527140596756    15.994914619570
         C           -0.132116228013     0.001670427571    -0.075307596756    12.000000000000
         C            1.940850771987    -1.216236572429     0.039993403244    12.000000000000
         C            1.932081771987     1.236527427571     0.020918403244    12.000000000000
         C            0.535096771987     1.225977427570    -0.050630596756    12.000000000000
         C            0.544667771987    -1.217470572429    -0.037023596756    12.000000000000
         C            2.611961771987     0.013149427571     0.067288403244    12.000000000000
         C            2.709701571987    -2.512252372429    -0.004635996756    12.000000000000
         C            2.689210771987     2.538582427571     0.001536403244    12.000000000000
         H           -0.030326228013     2.153448427571    -0.100599596756     1.007825032230
         H           -0.012946228013    -2.150293572429    -0.073531596756     1.007825032230
         H            3.700235771987     0.017616427571     0.131714403244     1.007825032230
         H            2.121269771987    -3.313733572429     0.503349403244     1.007825032230
         H            2.956045771987    -2.822625572429    -0.975251596756     1.007825032230
         H            3.643676771987    -2.412522572429     0.601247403244     1.007825032230
         H            2.933886771987     2.832085427571    -1.024784596756     1.007825032230
         H            2.098405771987     3.343874427571     0.446139403244     1.007825032230
         H            3.627139771987     2.455142427571     0.557334403244     1.007825032230
         H           -2.712835228013     0.668323427571     1.731611403244     1.007825032230

  Running in c1 symmetry.

  Rotational constants: A =      0.04289  B =      0.01961  C =      0.01477 [cm^-1]
  Rotational constants: A =   1285.67679  B =    587.96046  C =    442.82705 [MHz]
  Nuclear repulsion =  830.459445580548959

  Charge       = 0
  Multiplicity = 1
  Electrons    = 98
  Nalpha       = 49
  Nbeta        = 49

  ==> Algorithm <==

  SCF Algorithm Type is DF.
  DIIS enabled.
  MOM disabled.
  Fractional occupation disabled.
  Guess Type is SAD.
  Energy threshold   = 1.00e-10
  Density threshold  = 1.00e-10
  Integral threshold = 0.00e+00

  ==> Primary Basis <==

  Basis Set: AUG-CC-PVTZ
    Blend: AUG-CC-PVTZ
    Number of shells: 260
    Number of basis function: 786
    Number of Cartesian functions: 914
    Spherical Harmonics?: true
    Max angular momentum: 3

   => Loading Basis Set <=

    Name: (AUG-CC-PVTZ AUX)
    Role: JKFIT
    Keyword: DF_BASIS_SCF
    atoms 1     entry S          line   730 file /home/xy3866/psi4conda/share/psi4/basis/aug-cc-pvtz-jkfit.gbs 
    atoms 2-4   entry O          line   286 file /home/xy3866/psi4conda/share/psi4/basis/aug-cc-pvtz-jkfit.gbs 
    atoms 5-12  entry C          line   162 file /home/xy3866/psi4conda/share/psi4/basis/aug-cc-pvtz-jkfit.gbs 
    atoms 13-22 entry H          line    70 file /home/xy3866/psi4conda/share/psi4/basis/aug-cc-pvtz-jkfit.gbs 

  ==> Pre-Iterations <==

   -------------------------------------------------------
    Irrep   Nso     Nmo     Nalpha   Nbeta   Ndocc  Nsocc
   -------------------------------------------------------
     A        786     786       0       0       0       0
   -------------------------------------------------------
    Total     786     786      49      49      49       0
   -------------------------------------------------------

  ==> Integral Setup <==

  DFHelper Memory: AOs need 7.514 GiB; user supplied 22.352 GiB. Using in-core AOs.

  ==> MemDFJK: Density-Fitted J/K Matrices <==

    J tasked:                   Yes
    K tasked:                   Yes
    wK tasked:                   No
    OpenMP threads:               8
    Memory [MiB]:             22888
    Algorithm:                 Disk
    Schwarz Cutoff:           1E-12
    Mask sparsity (%):       8.9952
    Fitting Condition:        1E-10

   => Auxiliary Basis Set <=

  Basis Set: (AUG-CC-PVTZ AUX)
    Blend: AUG-CC-PVTZ-JKFIT
    Number of shells: 512
    Number of basis function: 1750
    Number of Cartesian functions: 2171
    Spherical Harmonics?: true
    Max angular momentum: 4

  Minimum eigenvalue in the overlap matrix is 4.2601997531E-07.
  Using Symmetric Orthogonalization.

  SCF Guess: Superposition of Atomic Densities via on-the-fly atomic UHF.

  ==> Iterations <==

                           Total Energy        Delta E     RMS |[F,P]|

   @DF-RHF iter SAD:  -930.84784610918905   -9.30848e+02   0.00000e+00 
   @DF-RHF iter   1:  -930.58805303371776    2.59793e-01   1.25064e-03 DIIS
   @DF-RHF iter   2:  -930.89317517640472   -3.05122e-01   8.24173e-04 DIIS
   @DF-RHF iter   3:  -931.04698024709467   -1.53805e-01   1.41188e-04 DIIS
   @DF-RHF iter   4:  -931.05342803502526   -6.44779e-03   5.27858e-05 DIIS
   @DF-RHF iter   5:  -931.05451195762794   -1.08392e-03   1.28920e-05 DIIS
   @DF-RHF iter   6:  -931.05458656969824   -7.46121e-05   4.33452e-06 DIIS
   @DF-RHF iter   7:  -931.05460278018245   -1.62105e-05   1.80302e-06 DIIS
   @DF-RHF iter   8:  -931.05460711158344   -4.33140e-06   9.33262e-07 DIIS
   @DF-RHF iter   9:  -931.05460875958738   -1.64800e-06   4.29663e-07 DIIS
   @DF-RHF iter  10:  -931.05460907687564   -3.17288e-07   1.34780e-07 DIIS
   @DF-RHF iter  11:  -931.05460910136469   -2.44891e-08   5.31577e-08 DIIS
   @DF-RHF iter  12:  -931.05460910312252   -1.75783e-09   2.14685e-08 DIIS
   @DF-RHF iter  13:  -931.05460910338434   -2.61821e-10   6.01644e-09 DIIS
   @DF-RHF iter  14:  -931.05460910341003   -2.56932e-11   1.78008e-09 DIIS
   @DF-RHF iter  15:  -931.05460910340958    4.54747e-13   6.56462e-10 DIIS
   @DF-RHF iter  16:  -931.05460910340844    1.13687e-12   3.22701e-10 DIIS
   @DF-RHF iter  17:  -931.05460910340696    1.47793e-12   1.14999e-10 DIIS
   @DF-RHF iter  18:  -931.05460910340628    6.82121e-13   4.90194e-11 DIIS
  Energy and wave function converged.


  ==> Post-Iterations <==

    Orbital Energies [Eh]
    ---------------------

    Doubly Occupied:                                                      

       1A    -92.228822     2A    -20.628680     3A    -20.565046  
       4A    -20.560806     5A    -11.286070     6A    -11.267468  
       7A    -11.266973     8A    -11.263177     9A    -11.262229  
      10A    -11.257333    11A    -11.241550    12A    -11.240348  
      13A     -9.191727    14A     -6.877347    15A     -6.876048  
      16A     -6.875809    17A     -1.492767    18A     -1.379124  
      19A     -1.351495    20A     -1.187961    21A     -1.081580  
      22A     -1.075478    23A     -0.962524    24A     -0.953879  
      25A     -0.924077    26A     -0.819159    27A     -0.810111  
      28A     -0.740105    29A     -0.723026    30A     -0.691246  
      31A     -0.683239    32A     -0.670348    33A     -0.627725  
      34A     -0.609825    35A     -0.600792    36A     -0.594051  
      37A     -0.586624    38A     -0.574110    39A     -0.565423  
      40A     -0.542091    41A     -0.535777    42A     -0.523704  
      43A     -0.509478    44A     -0.505802    45A     -0.501723  
      46A     -0.483957    47A     -0.473153    48A     -0.363743  
      49A     -0.345750  

    Virtual:                                                              

      50A      0.022149    51A      0.027573    52A      0.032312  
      53A      0.036771    54A      0.042935    55A      0.048831  
      56A      0.050240    57A      0.058704    58A      0.063877  
      59A      0.072344    60A      0.074238    61A      0.077045  
      62A      0.094306    63A      0.096889    64A      0.098720  
      65A      0.105358    66A      0.107700    67A      0.112342  
      68A      0.116746    69A      0.120933    70A      0.125190  
      71A      0.128800    72A      0.129761    73A      0.131934  
      74A      0.134769    75A      0.136667    76A      0.145425  
      77A      0.149909    78A      0.150479    79A      0.153400  
      80A      0.156599    81A      0.160421    82A      0.163696  
      83A      0.170483    84A      0.177074    85A      0.181100  
      86A      0.188440    87A      0.193442    88A      0.201694  
      89A      0.201938    90A      0.213582    91A      0.216830  
      92A      0.220016    93A      0.225545    94A      0.231644  
      95A      0.233868    96A      0.238425    97A      0.245863  
      98A      0.253544    99A      0.257436   100A      0.258914  
     101A      0.265198   102A      0.265947   103A      0.268433  
     104A      0.275577   105A      0.277400   106A      0.282543  
     107A      0.284451   108A      0.287904   109A      0.291761  
     110A      0.294220   111A      0.298437   112A      0.300959  
     113A      0.301258   114A      0.309998   115A      0.314044  
     116A      0.318714   117A      0.327027   118A      0.329540  
     119A      0.333293   120A      0.337105   121A      0.339473  
     122A      0.342560   123A      0.346829   124A      0.353323  
     125A      0.357004   126A      0.362419   127A      0.370418  
     128A      0.376311   129A      0.378371   130A      0.381999  
     131A      0.386449   132A      0.388492   133A      0.391542  
     134A      0.396855   135A      0.402942   136A      0.408384  
     137A      0.411682   138A      0.414015   139A      0.416887  
     140A      0.420226   141A      0.423976   142A      0.425250  
     143A      0.436524   144A      0.444045   145A      0.446090  
     146A      0.446606   147A      0.448321   148A      0.453551  
     149A      0.460315   150A      0.467543   151A      0.468831  
     152A      0.475041   153A      0.477658   154A      0.483675  
     155A      0.486144   156A      0.489313   157A      0.493813  
     158A      0.497073   159A      0.499350   160A      0.504137  
     161A      0.505641   162A      0.507403   163A      0.511936  
     164A      0.514087   165A      0.516165   166A      0.523437  
     167A      0.527953   168A      0.536483   169A      0.540456  
     170A      0.541418   171A      0.547068   172A      0.553694  
     173A      0.554939   174A      0.560537   175A      0.566691  
     176A      0.572851   177A      0.576174   178A      0.578201  
     179A      0.584540   180A      0.588645   181A      0.595926  
     182A      0.601855   183A      0.605998   184A      0.613634  
     185A      0.614143   186A      0.625481   187A      0.632004  
     188A      0.634115   189A      0.640708   190A      0.647553  
     191A      0.663843   192A      0.666409   193A      0.684866  
     194A      0.692156   195A      0.696014   196A      0.702202  
     197A      0.707233   198A      0.714128   199A      0.719610  
     200A      0.726182   201A      0.741472   202A      0.745943  
     203A      0.750348   204A      0.754157   205A      0.762789  
     206A      0.766454   207A      0.778047   208A      0.780406  
     209A      0.785404   210A      0.791858   211A      0.802449  
     212A      0.805928   213A      0.810022   214A      0.819017  
     215A      0.823887   216A      0.829110   217A      0.836759  
     218A      0.839628   219A      0.852107   220A      0.855168  
     221A      0.857462   222A      0.864964   223A      0.869186  
     224A      0.877042   225A      0.877951   226A      0.883200  
     227A      0.889115   228A      0.892670   229A      0.899192  
     230A      0.903979   231A      0.912037   232A      0.914862  
     233A      0.921342   234A      0.925539   235A      0.932119  
     236A      0.933084   237A      0.936573   238A      0.942983  
     239A      0.944478   240A      0.946991   241A      0.950700  
     242A      0.956553   243A      0.960938   244A      0.971288  
     245A      0.976503   246A      0.982945   247A      0.992762  
     248A      0.995953   249A      1.000288   250A      1.002972  
     251A      1.006233   252A      1.010387   253A      1.016135  
     254A      1.019633   255A      1.020390   256A      1.022633  
     257A      1.025349   258A      1.033733   259A      1.038115  
     260A      1.044603   261A      1.046999   262A      1.054433  
     263A      1.056848   264A      1.063028   265A      1.069714  
     266A      1.076800   267A      1.080973   268A      1.084901  
     269A      1.086854   270A      1.088005   271A      1.090673  
     272A      1.097097   273A      1.106211   274A      1.115032  
     275A      1.117033   276A      1.119063   277A      1.127577  
     278A      1.129397   279A      1.136684   280A      1.140849  
     281A      1.146457   282A      1.150378   283A      1.153418  
     284A      1.157100   285A      1.163732   286A      1.176157  
     287A      1.183298   288A      1.189531   289A      1.195504  
     290A      1.199378   291A      1.200672   292A      1.204759  
     293A      1.208733   294A      1.214881   295A      1.222485  
     296A      1.225613   297A      1.233682   298A      1.237166  
     299A      1.245949   300A      1.249679   301A      1.254447  
     302A      1.258323   303A      1.261602   304A      1.266590  
     305A      1.276733   306A      1.281368   307A      1.288366  
     308A      1.292926   309A      1.305130   310A      1.311106  
     311A      1.318415   312A      1.325882   313A      1.332244  
     314A      1.337607   315A      1.341242   316A      1.351196  
     317A      1.357085   318A      1.359989   319A      1.371627  
     320A      1.372991   321A      1.386635   322A      1.389373  
     323A      1.400717   324A      1.404803   325A      1.409316  
     326A      1.421427   327A      1.426014   328A      1.429410  
     329A      1.439789   330A      1.444422   331A      1.451975  
     332A      1.465785   333A      1.470592   334A      1.487140  
     335A      1.490988   336A      1.495505   337A      1.496101  
     338A      1.502767   339A      1.509267   340A      1.514386  
     341A      1.522342   342A      1.531677   343A      1.544248  
     344A      1.549310   345A      1.559698   346A      1.565042  
     347A      1.569170   348A      1.578184   349A      1.594351  
     350A      1.612947   351A      1.621691   352A      1.629336  
     353A      1.641205   354A      1.643290   355A      1.646116  
     356A      1.653000   357A      1.661691   358A      1.669096  
     359A      1.674539   360A      1.677896   361A      1.681713  
     362A      1.693206   363A      1.708320   364A      1.713573  
     365A      1.720377   366A      1.726032   367A      1.736126  
     368A      1.743308   369A      1.745233   370A      1.750051  
     371A      1.769833   372A      1.773096   373A      1.775014  
     374A      1.788726   375A      1.797291   376A      1.806575  
     377A      1.811494   378A      1.818863   379A      1.827661  
     380A      1.835577   381A      1.840571   382A      1.843676  
     383A      1.854381   384A      1.862082   385A      1.864169  
     386A      1.874346   387A      1.880079   388A      1.885588  
     389A      1.903331   390A      1.904614   391A      1.921177  
     392A      1.921774   393A      1.932570   394A      1.952181  
     395A      1.960248   396A      1.978039   397A      1.981163  
     398A      1.987222   399A      1.999494   400A      2.009497  
     401A      2.013399   402A      2.025581   403A      2.028941  
     404A      2.039976   405A      2.045356   406A      2.051120  
     407A      2.057845   408A      2.065606   409A      2.070178  
     410A      2.091489   411A      2.101055   412A      2.105724  
     413A      2.127159   414A      2.131820   415A      2.134936  
     416A      2.143755   417A      2.149668   418A      2.165663  
     419A      2.170846   420A      2.178647   421A      2.188439  
     422A      2.197249   423A      2.205128   424A      2.216509  
     425A      2.223651   426A      2.228682   427A      2.234886  
     428A      2.241531   429A      2.246121   430A      2.254329  
     431A      2.261089   432A      2.272788   433A      2.284098  
     434A      2.295557   435A      2.298396   436A      2.300229  
     437A      2.310677   438A      2.320730   439A      2.332550  
     440A      2.338678   441A      2.347534   442A      2.352207  
     443A      2.357850   444A      2.374539   445A      2.380723  
     446A      2.388653   447A      2.397537   448A      2.405476  
     449A      2.414740   450A      2.428803   451A      2.441465  
     452A      2.446471   453A      2.456718   454A      2.462720  
     455A      2.468660   456A      2.470929   457A      2.475998  
     458A      2.487742   459A      2.497522   460A      2.517778  
     461A      2.522450   462A      2.530030   463A      2.548044  
     464A      2.552227   465A      2.561987   466A      2.573951  
     467A      2.584470   468A      2.597166   469A      2.612897  
     470A      2.619561   471A      2.621888   472A      2.643122  
     473A      2.649239   474A      2.694188   475A      2.699397  
     476A      2.704897   477A      2.718515   478A      2.745776  
     479A      2.752197   480A      2.764889   481A      2.767698  
     482A      2.788462   483A      2.803386   484A      2.816757  
     485A      2.827676   486A      2.834834   487A      2.848361  
     488A      2.855484   489A      2.872285   490A      2.893931  
     491A      2.901275   492A      2.940569   493A      2.957627  
     494A      2.971842   495A      3.004820   496A      3.011551  
     497A      3.025310   498A      3.036819   499A      3.060415  
     500A      3.067007   501A      3.084373   502A      3.109930  
     503A      3.131187   504A      3.182931   505A      3.200375  
     506A      3.232292   507A      3.240957   508A      3.250678  
     509A      3.284078   510A      3.297574   511A      3.314087  
     512A      3.320344   513A      3.332727   514A      3.351115  
     515A      3.360897   516A      3.364898   517A      3.378564  
     518A      3.388694   519A      3.399993   520A      3.404508  
     521A      3.409228   522A      3.424432   523A      3.434011  
     524A      3.456050   525A      3.468760   526A      3.471498  
     527A      3.482455   528A      3.498187   529A      3.510627  
     530A      3.520759   531A      3.525832   532A      3.535999  
     533A      3.541733   534A      3.553157   535A      3.564125  
     536A      3.574444   537A      3.584711   538A      3.585558  
     539A      3.605906   540A      3.613628   541A      3.624660  
     542A      3.634261   543A      3.644595   544A      3.663071  
     545A      3.665509   546A      3.673789   547A      3.682205  
     548A      3.688327   549A      3.693330   550A      3.709664  
     551A      3.718303   552A      3.735620   553A      3.746288  
     554A      3.754789   555A      3.759189   556A      3.774527  
     557A      3.785367   558A      3.795339   559A      3.796927  
     560A      3.810814   561A      3.816991   562A      3.833175  
     563A      3.844703   564A      3.859691   565A      3.875487  
     566A      3.886137   567A      3.891301   568A      3.893882  
     569A      3.897688   570A      3.909218   571A      3.919584  
     572A      3.928798   573A      3.934091   574A      3.937407  
     575A      3.964215   576A      3.970764   577A      3.979151  
     578A      3.988186   579A      3.999971   580A      4.011031  
     581A      4.013030   582A      4.015677   583A      4.022665  
     584A      4.051555   585A      4.063962   586A      4.077531  
     587A      4.085118   588A      4.094727   589A      4.099632  
     590A      4.113234   591A      4.122545   592A      4.127897  
     593A      4.151116   594A      4.167019   595A      4.176326  
     596A      4.183725   597A      4.193537   598A      4.213017  
     599A      4.215476   600A      4.227807   601A      4.236204  
     602A      4.240973   603A      4.250656   604A      4.265413  
     605A      4.272804   606A      4.291921   607A      4.302456  
     608A      4.309544   609A      4.323975   610A      4.348060  
     611A      4.352128   612A      4.365624   613A      4.380191  
     614A      4.393093   615A      4.404559   616A      4.415198  
     617A      4.428272   618A      4.439625   619A      4.447353  
     620A      4.474415   621A      4.475895   622A      4.479622  
     623A      4.492714   624A      4.496803   625A      4.502121  
     626A      4.521801   627A      4.534058   628A      4.541342  
     629A      4.551973   630A      4.564113   631A      4.577681  
     632A      4.580083   633A      4.600164   634A      4.624083  
     635A      4.638788   636A      4.657165   637A      4.672848  
     638A      4.686175   639A      4.694553   640A      4.707238  
     641A      4.718966   642A      4.724443   643A      4.728684  
     644A      4.736864   645A      4.739397   646A      4.746284  
     647A      4.775452   648A      4.799562   649A      4.811635  
     650A      4.824349   651A      4.832577   652A      4.845272  
     653A      4.855337   654A      4.862608   655A      4.870528  
     656A      4.886723   657A      4.889963   658A      4.908526  
     659A      4.919288   660A      4.922900   661A      4.950090  
     662A      4.954576   663A      4.979305   664A      4.994315  
     665A      5.022701   666A      5.033460   667A      5.048525  
     668A      5.075751   669A      5.090716   670A      5.111733  
     671A      5.116932   672A      5.125243   673A      5.126623  
     674A      5.149789   675A      5.162464   676A      5.178531  
     677A      5.194545   678A      5.197203   679A      5.227405  
     680A      5.233006   681A      5.245090   682A      5.272061  
     683A      5.279957   684A      5.298153   685A      5.331738  
     686A      5.347757   687A      5.354943   688A      5.362733  
     689A      5.376034   690A      5.398070   691A      5.402054  
     692A      5.449423   693A      5.472379   694A      5.486603  
     695A      5.503288   696A      5.533991   697A      5.551331  
     698A      5.587421   699A      5.603877   700A      5.631524  
     701A      5.642592   702A      5.705379   703A      5.723085  
     704A      5.731881   705A      5.739050   706A      5.748083  
     707A      5.762290   708A      5.784576   709A      5.805269  
     710A      5.819696   711A      5.851065   712A      5.875247  
     713A      5.908675   714A      5.937996   715A      6.004636  
     716A      6.056626   717A      6.097882   718A      6.147037  
     719A      6.164835   720A      6.170437   721A      6.236524  
     722A      6.251991   723A      6.265050   724A      6.338637  
     725A      6.363962   726A      6.429081   727A      6.475676  
     728A      6.493527   729A      6.520344   730A      6.691871  
     731A      6.699924   732A      6.709173   733A      6.739713  
     734A      6.745962   735A      6.756584   736A      6.766447  
     737A      6.782473   738A      6.790653   739A      6.804007  
     740A      6.810927   741A      6.832992   742A      6.844301  
     743A      6.852473   744A      6.866687   745A      6.887272  
     746A      6.925568   747A      6.931934   748A      6.936041  
     749A      6.963574   750A      6.979780   751A      7.029857  
     752A      7.035982   753A      7.049175   754A      7.090563  
     755A      7.103524   756A      7.165221   757A      7.232239  
     758A      7.242361   759A      7.287783   760A      7.307221  
     761A      7.325727   762A      7.336712   763A      7.371783  
     764A      7.418443   765A      7.458836   766A      7.499731  
     767A      7.651903   768A      7.733971   769A      7.742150  
     770A      7.758978   771A      7.794966   772A      7.840578  
     773A      7.983355   774A      8.314898   775A     12.733674  
     776A     13.210372   777A     13.924936   778A     15.531032  
     779A     16.332580   780A     16.395268   781A     18.079657  
     782A     18.765279   783A     19.356892   784A     20.086371  
     785A     20.663909   786A     21.073942  

    Final Occupation by Irrep:
              A 
    DOCC [    49 ]

  @DF-RHF Final Energy:  -931.05460910340628

   => Energetics <=

    Nuclear Repulsion Energy =            830.4594455805489588
    One-Electron Energy =               -2926.2695478920518326
    Two-Electron Energy =                1164.7554932080963681
    Total Energy =                       -931.0546091034063920

Computation Completed

*** tstop() called on node144.bme.utexas.edu at Sun Mar 28 01:57:22 2021
Module time:
	user time   =     660.69 seconds =      11.01 minutes
	system time =      73.06 seconds =       1.22 minutes
	total time  =        146 seconds =       2.43 minutes
Total time:
	user time   =     660.69 seconds =      11.01 minutes
	system time =      73.06 seconds =       1.22 minutes
	total time  =        146 seconds =       2.43 minutes
   => Loading Basis Set <=

    Name: (AUG-CC-PVTZ AUX)
    Role: RIFIT
    Keyword: DF_BASIS_MP2
    atoms 1     entry S          line   666 file /home/xy3866/psi4conda/share/psi4/basis/aug-cc-pvtz-ri.gbs 
    atoms 2-4   entry O          line   264 file /home/xy3866/psi4conda/share/psi4/basis/aug-cc-pvtz-ri.gbs 
    atoms 5-12  entry C          line   148 file /home/xy3866/psi4conda/share/psi4/basis/aug-cc-pvtz-ri.gbs 
    atoms 13-22 entry H          line    30 file /home/xy3866/psi4conda/share/psi4/basis/aug-cc-pvtz-ri.gbs 


*** tstart() called on node144.bme.utexas.edu
*** at Sun Mar 28 01:57:22 2021


  //>>>>>>>>>>>>>>>>>>>>>>>>>>>>>>>>>>>//
  //               DFMP2               //
  //<<<<<<<<<<<<<<<<<<<<<<<<<<<<<<<<<<<//

	 --------------------------------------------------------
	                          DF-MP2                         
	      2nd-Order Density-Fitted Moller-Plesset Theory     
	              RMP2 Wavefunction,   8 Threads             
	                                                         
	        Rob Parrish, Justin Turney, Andy Simmonett,      
	           Ed Hohenstein, and C. David Sherrill          
	 --------------------------------------------------------

   => Auxiliary Basis Set <=

  Basis Set: (AUG-CC-PVTZ AUX)
    Blend: AUG-CC-PVTZ-RI
    Number of shells: 485
    Number of basis function: 1773
    Number of Cartesian functions: 2237
    Spherical Harmonics?: true
    Max angular momentum: 4

	 --------------------------------------------------------
	                 NBF =   786, NAUX =  1773
	 --------------------------------------------------------
	   CLASS    FOCC     OCC    AOCC    AVIR     VIR    FVIR
	   PAIRS       0      49      49     737     737       0
	 --------------------------------------------------------

  DFHelper Memory: AOs need 7.514 GiB; user supplied 22.352 GiB. Using in-core AOs.


         ------------------------------------------------------------
                                     CPHF                           
                                  Rob Parrish                       
         ------------------------------------------------------------

  ==> Geometry <==

    Molecular point group: c1
    Full point group: C1

    Geometry (in Angstrom), charge = 0, multiplicity = 1:

       Center              X                  Y                   Z               Mass       
    ------------   -----------------  -----------------  -----------------  -----------------
         S           -1.898520228013    -0.008640572429    -0.124410596756    31.972071174400
         O           -2.269526228013    -0.166194572429     1.471223403244    15.994914619570
         O           -2.336441228013    -1.230514572429    -0.780236596756    15.994914619570
         O           -2.380364228013     1.312903427571    -0.527140596756    15.994914619570
         C           -0.132116228013     0.001670427571    -0.075307596756    12.000000000000
         C            1.940850771987    -1.216236572429     0.039993403244    12.000000000000
         C            1.932081771987     1.236527427571     0.020918403244    12.000000000000
         C            0.535096771987     1.225977427570    -0.050630596756    12.000000000000
         C            0.544667771987    -1.217470572429    -0.037023596756    12.000000000000
         C            2.611961771987     0.013149427571     0.067288403244    12.000000000000
         C            2.709701571987    -2.512252372429    -0.004635996756    12.000000000000
         C            2.689210771987     2.538582427571     0.001536403244    12.000000000000
         H           -0.030326228013     2.153448427571    -0.100599596756     1.007825032230
         H           -0.012946228013    -2.150293572429    -0.073531596756     1.007825032230
         H            3.700235771987     0.017616427571     0.131714403244     1.007825032230
         H            2.121269771987    -3.313733572429     0.503349403244     1.007825032230
         H            2.956045771987    -2.822625572429    -0.975251596756     1.007825032230
         H            3.643676771987    -2.412522572429     0.601247403244     1.007825032230
         H            2.933886771987     2.832085427571    -1.024784596756     1.007825032230
         H            2.098405771987     3.343874427571     0.446139403244     1.007825032230
         H            3.627139771987     2.455142427571     0.557334403244     1.007825032230
         H           -2.712835228013     0.668323427571     1.731611403244     1.007825032230

  Nuclear repulsion =  830.459445580548959
  Reference energy  = -931.054609103406278

  ==> Basis Set <==

  Basis Set: AUG-CC-PVTZ
    Blend: AUG-CC-PVTZ
    Number of shells: 260
    Number of basis function: 786
    Number of Cartesian functions: 914
    Spherical Harmonics?: true
    Max angular momentum: 3

  ==> CGRSolver (by Rob Parrish) <==

   Number of roots    =         1
   Preconditioning    =    JACOBI
   Convergence cutoff =     1E-06
   Maximum iterations =       100

  ==> CPHFRHamiltonian (by Rob Parrish) <== 

  ==> MemDFJK: Density-Fitted J/K Matrices <==

    J tasked:                   Yes
    K tasked:                   Yes
    wK tasked:                   No
    OpenMP threads:               8
    Memory [MiB]:             22888
    Algorithm:                 Disk
    Schwarz Cutoff:           1E-12
    Mask sparsity (%):       8.9952
    Fitting Condition:        1E-10

   => Auxiliary Basis Set <=

  Basis Set: (AUG-CC-PVTZ AUX)
    Blend: AUG-CC-PVTZ-JKFIT
    Number of shells: 512
    Number of basis function: 1750
    Number of Cartesian functions: 2171
    Spherical Harmonics?: true
    Max angular momentum: 4

  ==> CPHF Iterations <==

  => Iterations <=

             Iter  Converged  Remaining    Residual
  CGR           1          0          1   1.080E-01
  CGR           2          0          1   3.006E-02
  CGR           3          0          1   1.191E-02
  CGR           4          0          1   4.716E-03
  CGR           5          0          1   1.950E-03
  CGR           6          0          1   1.001E-03
  CGR           7          0          1   4.646E-04
  CGR           8          0          1   1.695E-04
  CGR           9          0          1   5.276E-05
  CGR          10          0          1   2.074E-05
  CGR          11          0          1   7.196E-06
  CGR          12          0          1   2.194E-06
  CGR          13          1          0   8.588E-07

    CGRSolver converged.

	-----------------------------------------------------------
	 ==================> DF-MP2 Energies <==================== 
	-----------------------------------------------------------
	 Reference Energy          =    -931.0546091034062783 [Eh]
	 Singles Energy            =      -0.0000000000000000 [Eh]
	 Same-Spin Energy          =      -0.6213247736034481 [Eh]
	 Opposite-Spin Energy      =      -1.8678150397547428 [Eh]
	 Correlation Energy        =      -2.4891398133581908 [Eh]
	 Total Energy              =    -933.5437489167644571 [Eh]
	-----------------------------------------------------------
	 ================> DF-SCS-MP2 Energies <================== 
	-----------------------------------------------------------
	 SCS Same-Spin Scale       =       0.3333333333333333 [-]
	 SCS Opposite-Spin Scale   =       1.2000000000000000 [-]
	 SCS Same-Spin Energy      =      -0.2071082578678160 [Eh]
	 SCS Opposite-Spin Energy  =      -2.2413780477056915 [Eh]
	 SCS Correlation Energy    =      -2.4484863055735073 [Eh]
	 SCS Total Energy          =    -933.5030954089797888 [Eh]
	-----------------------------------------------------------



Properties will be evaluated at  -0.000000,   0.000000,   0.000000 [a0]

Properties computed using the MP2 density matrix

  Nuclear Dipole Moment: [e a0]
     X:    17.0950      Y:     0.7225      Z:     1.6824

  Electronic Dipole Moment: [e a0]
     X:   -15.3588      Y:    -0.3171      Z:    -0.9465

  Dipole Moment: [e a0]
     X:     1.7363      Y:     0.4053      Z:     0.7359     Total:     1.9289

  Dipole Moment: [D]
     X:     4.4132      Y:     1.0303      Z:     1.8704     Total:     4.9027


*** tstop() called on node144.bme.utexas.edu at Sun Mar 28 02:03:34 2021
Module time:
	user time   =    2270.95 seconds =      37.85 minutes
	system time =      81.90 seconds =       1.36 minutes
	total time  =        372 seconds =       6.20 minutes
Total time:
	user time   =    2931.87 seconds =      48.86 minutes
	system time =     154.97 seconds =       2.58 minutes
	total time  =        518 seconds =       8.63 minutes

    Psi4 stopped on: Sunday, 28 March 2021 02:03AM
    Psi4 wall time for execution: 0:08:38.27

*** Psi4 exiting successfully. Buy a developer a beer!
