12782123                                                                
Freq      RMP2-FC                                                     6-31G(d)            
Number of atoms                            I               26
Info1-9                                    I   N=           9
          38          36        1002           0           0         100
           6           2           1
Charge                                     I                0
Multiplicity                               I                1
Number of electrons                        I               94
Number of alpha electrons                  I               47
Number of beta electrons                   I               47
Number of basis functions                  I              221
Number of independent functions            I              221
Number of point charges in /Mol/           I                0
Number of translation vectors              I                0
Atomic numbers                             I   N=          26
           8           7           6           6           6           6
           6           6           6           6           6           6
           6           1           1           1           1           1
           1           1           1           1           1           1
           1           1
Nuclear charges                            R   N=          26
  8.00000000E+00  7.00000000E+00  6.00000000E+00  6.00000000E+00  6.00000000E+00
  6.00000000E+00  6.00000000E+00  6.00000000E+00  6.00000000E+00  6.00000000E+00
  6.00000000E+00  6.00000000E+00  6.00000000E+00  1.00000000E+00  1.00000000E+00
  1.00000000E+00  1.00000000E+00  1.00000000E+00  1.00000000E+00  1.00000000E+00
  1.00000000E+00  1.00000000E+00  1.00000000E+00  1.00000000E+00  1.00000000E+00
  1.00000000E+00
Current cartesian coordinates              R   N=          78
  5.84784271E+00 -1.12986545E+00 -4.20936928E-01  1.65024454E+00 -1.78953162E+00
  3.57277485E-01  3.37553241E-01  3.21285090E+00  1.83674101E+00  2.16165332E+00
  4.14172774E+00 -2.21155654E-01 -1.62678672E+00  1.43529654E+00  8.12723153E-01
  2.92257212E+00  1.99477563E+00 -2.01885052E+00 -9.09182456E-01 -1.03012776E+00
  1.01578006E-01  3.63969625E+00 -4.11847187E-01 -6.41493719E-01 -4.15957581E+00
  2.13626744E+00  5.33042842E-01 -2.71700980E+00 -2.75811023E+00 -7.64192166E-01
  2.22995161E+00 -4.23299008E+00  1.50680018E+00 -5.96673071E+00  4.24665953E-01
 -3.40804210E-01 -5.24052801E+00 -2.02995744E+00 -9.81194696E-01 -5.82217270E-01
  4.82159756E+00  2.76072515E+00  1.42509933E+00  2.21638292E+00  3.29398711E+00
  1.27697358E+00  5.65225808E+00 -1.32987943E+00  3.84955728E+00  4.94722942E+00
  6.68934121E-01  4.56870340E+00  2.53586533E+00 -3.14221873E+00  1.36137747E+00
  1.59408843E+00 -3.31753726E+00 -4.72927557E+00  4.03908876E+00  1.07117887E+00
 -2.13393428E+00 -4.65180081E+00 -1.30795320E+00  2.27301851E+00 -5.75228425E+00
  1.01326603E-01  7.99218990E-01 -4.65237875E+00  2.93089531E+00  4.09178852E+00
 -4.10362323E+00  2.37687664E+00 -7.93017542E+00  1.00244523E+00 -5.18913157E-01
 -6.63426616E+00 -3.37853283E+00 -1.66003439E+00
Force Field                                I                0
Int Atom Types                             I   N=          26
           0           0           0           0           0           0
           0           0           0           0           0           0
           0           0           0           0           0           0
           0           0           0           0           0           0
           0           0
MM charges                                 R   N=          26
  0.00000000E+00  0.00000000E+00  0.00000000E+00  0.00000000E+00  0.00000000E+00
  0.00000000E+00  0.00000000E+00  0.00000000E+00  0.00000000E+00  0.00000000E+00
  0.00000000E+00  0.00000000E+00  0.00000000E+00  0.00000000E+00  0.00000000E+00
  0.00000000E+00  0.00000000E+00  0.00000000E+00  0.00000000E+00  0.00000000E+00
  0.00000000E+00  0.00000000E+00  0.00000000E+00  0.00000000E+00  0.00000000E+00
  0.00000000E+00
Integer atomic weights                     I   N=          26
          16          14          12          12          12          12
          12          12          12          12          12          12
          12           1           1           1           1           1
           1           1           1           1           1           1
           1           1
Real atomic weights                        R   N=          26
  1.59949146E+01  1.40030740E+01  1.20000000E+01  1.20000000E+01  1.20000000E+01
  1.20000000E+01  1.20000000E+01  1.20000000E+01  1.20000000E+01  1.20000000E+01
  1.20000000E+01  1.20000000E+01  1.20000000E+01  1.00782504E+00  1.00782504E+00
  1.00782504E+00  1.00782504E+00  1.00782504E+00  1.00782504E+00  1.00782504E+00
  1.00782504E+00  1.00782504E+00  1.00782504E+00  1.00782504E+00  1.00782504E+00
  1.00782504E+00
Atom fragment info                         I   N=          26
           0           0           0           0           0           0
           0           0           0           0           0           0
           0           0           0           0           0           0
           0           0           0           0           0           0
           0           0
Atom residue num                           I   N=          26
           0           0           0           0           0           0
           0           0           0           0           0           0
           0           0           0           0           0           0
           0           0           0           0           0           0
           0           0
Nuclear spins                              I   N=          26
           0           2           0           0           0           0
           0           0           0           0           0           0
           0           1           1           1           1           1
           1           1           1           1           1           1
           1           1
Nuclear ZEff                               R   N=          26
 -5.60000000E+00 -4.55000000E+00 -3.60000000E+00 -3.60000000E+00 -3.60000000E+00
 -3.60000000E+00 -3.60000000E+00 -3.60000000E+00 -3.60000000E+00 -3.60000000E+00
 -3.60000000E+00 -3.60000000E+00 -3.60000000E+00 -1.00000000E+00 -1.00000000E+00
 -1.00000000E+00 -1.00000000E+00 -1.00000000E+00 -1.00000000E+00 -1.00000000E+00
 -1.00000000E+00 -1.00000000E+00 -1.00000000E+00 -1.00000000E+00 -1.00000000E+00
 -1.00000000E+00
Nuclear QMom                               R   N=          26
  0.00000000E+00  2.04400000E+00  0.00000000E+00  0.00000000E+00  0.00000000E+00
  0.00000000E+00  0.00000000E+00  0.00000000E+00  0.00000000E+00  0.00000000E+00
  0.00000000E+00  0.00000000E+00  0.00000000E+00  0.00000000E+00  0.00000000E+00
  0.00000000E+00  0.00000000E+00  0.00000000E+00  0.00000000E+00  0.00000000E+00
  0.00000000E+00  0.00000000E+00  0.00000000E+00  0.00000000E+00  0.00000000E+00
  0.00000000E+00
Nuclear GFac                               R   N=          26
  0.00000000E+00  4.03761000E-01  0.00000000E+00  0.00000000E+00  0.00000000E+00
  0.00000000E+00  0.00000000E+00  0.00000000E+00  0.00000000E+00  0.00000000E+00
  0.00000000E+00  0.00000000E+00  0.00000000E+00  2.79284600E+00  2.79284600E+00
  2.79284600E+00  2.79284600E+00  2.79284600E+00  2.79284600E+00  2.79284600E+00
  2.79284600E+00  2.79284600E+00  2.79284600E+00  2.79284600E+00  2.79284600E+00
  2.79284600E+00
MicOpt                                     I   N=          26
          -1          -1          -1          -1          -1          -1
          -1          -1          -1          -1          -1          -1
          -1          -1          -1          -1          -1          -1
          -1          -1          -1          -1          -1          -1
          -1          -1
Number of contracted shells                I               78
Number of primitive shells                 I              195
Pure/Cartesian d shells                    I                1
Pure/Cartesian f shells                    I                0
Highest angular momentum                   I                2
Largest degree of contraction              I                6
Shell types                                I   N=          78
           0          -1          -1           2           0          -1
          -1           2           0          -1          -1           2
           0          -1          -1           2           0          -1
          -1           2           0          -1          -1           2
           0          -1          -1           2           0          -1
          -1           2           0          -1          -1           2
           0          -1          -1           2           0          -1
          -1           2           0          -1          -1           2
           0          -1          -1           2           0           0
           0           0           0           0           0           0
           0           0           0           0           0           0
           0           0           0           0           0           0
           0           0           0           0           0           0
Number of primitives per shell             I   N=          78
           6           3           1           1           6           3
           1           1           6           3           1           1
           6           3           1           1           6           3
           1           1           6           3           1           1
           6           3           1           1           6           3
           1           1           6           3           1           1
           6           3           1           1           6           3
           1           1           6           3           1           1
           6           3           1           1           3           1
           3           1           3           1           3           1
           3           1           3           1           3           1
           3           1           3           1           3           1
           3           1           3           1           3           1
Shell to atom map                          I   N=          78
           1           1           1           1           2           2
           2           2           3           3           3           3
           4           4           4           4           5           5
           5           5           6           6           6           6
           7           7           7           7           8           8
           8           8           9           9           9           9
          10          10          10          10          11          11
          11          11          12          12          12          12
          13          13          13          13          14          14
          15          15          16          16          17          17
          18          18          19          19          20          20
          21          21          22          22          23          23
          24          24          25          25          26          26
Primitive exponents                        R   N=         195
  5.48467166E+03  8.25234946E+02  1.88046958E+02  5.29645000E+01  1.68975704E+01
  5.79963534E+00  1.55396162E+01  3.59993359E+00  1.01376175E+00  2.70005823E-01
  8.00000000E-01  4.17351146E+03  6.27457911E+02  1.42902093E+02  4.02343293E+01
  1.28202129E+01  4.39043701E+00  1.16263619E+01  2.71627981E+00  7.72218397E-01
  2.12031498E-01  8.00000000E-01  3.04752488E+03  4.57369518E+02  1.03948685E+02
  2.92101553E+01  9.28666296E+00  3.16392696E+00  7.86827235E+00  1.88128854E+00
  5.44249258E-01  1.68714478E-01  8.00000000E-01  3.04752488E+03  4.57369518E+02
  1.03948685E+02  2.92101553E+01  9.28666296E+00  3.16392696E+00  7.86827235E+00
  1.88128854E+00  5.44249258E-01  1.68714478E-01  8.00000000E-01  3.04752488E+03
  4.57369518E+02  1.03948685E+02  2.92101553E+01  9.28666296E+00  3.16392696E+00
  7.86827235E+00  1.88128854E+00  5.44249258E-01  1.68714478E-01  8.00000000E-01
  3.04752488E+03  4.57369518E+02  1.03948685E+02  2.92101553E+01  9.28666296E+00
  3.16392696E+00  7.86827235E+00  1.88128854E+00  5.44249258E-01  1.68714478E-01
  8.00000000E-01  3.04752488E+03  4.57369518E+02  1.03948685E+02  2.92101553E+01
  9.28666296E+00  3.16392696E+00  7.86827235E+00  1.88128854E+00  5.44249258E-01
  1.68714478E-01  8.00000000E-01  3.04752488E+03  4.57369518E+02  1.03948685E+02
  2.92101553E+01  9.28666296E+00  3.16392696E+00  7.86827235E+00  1.88128854E+00
  5.44249258E-01  1.68714478E-01  8.00000000E-01  3.04752488E+03  4.57369518E+02
  1.03948685E+02  2.92101553E+01  9.28666296E+00  3.16392696E+00  7.86827235E+00
  1.88128854E+00  5.44249258E-01  1.68714478E-01  8.00000000E-01  3.04752488E+03
  4.57369518E+02  1.03948685E+02  2.92101553E+01  9.28666296E+00  3.16392696E+00
  7.86827235E+00  1.88128854E+00  5.44249258E-01  1.68714478E-01  8.00000000E-01
  3.04752488E+03  4.57369518E+02  1.03948685E+02  2.92101553E+01  9.28666296E+00
  3.16392696E+00  7.86827235E+00  1.88128854E+00  5.44249258E-01  1.68714478E-01
  8.00000000E-01  3.04752488E+03  4.57369518E+02  1.03948685E+02  2.92101553E+01
  9.28666296E+00  3.16392696E+00  7.86827235E+00  1.88128854E+00  5.44249258E-01
  1.68714478E-01  8.00000000E-01  3.04752488E+03  4.57369518E+02  1.03948685E+02
  2.92101553E+01  9.28666296E+00  3.16392696E+00  7.86827235E+00  1.88128854E+00
  5.44249258E-01  1.68714478E-01  8.00000000E-01  1.87311370E+01  2.82539436E+00
  6.40121692E-01  1.61277759E-01  1.87311370E+01  2.82539436E+00  6.40121692E-01
  1.61277759E-01  1.87311370E+01  2.82539436E+00  6.40121692E-01  1.61277759E-01
  1.87311370E+01  2.82539436E+00  6.40121692E-01  1.61277759E-01  1.87311370E+01
  2.82539436E+00  6.40121692E-01  1.61277759E-01  1.87311370E+01  2.82539436E+00
  6.40121692E-01  1.61277759E-01  1.87311370E+01  2.82539436E+00  6.40121692E-01
  1.61277759E-01  1.87311370E+01  2.82539436E+00  6.40121692E-01  1.61277759E-01
  1.87311370E+01  2.82539436E+00  6.40121692E-01  1.61277759E-01  1.87311370E+01
  2.82539436E+00  6.40121692E-01  1.61277759E-01  1.87311370E+01  2.82539436E+00
  6.40121692E-01  1.61277759E-01  1.87311370E+01  2.82539436E+00  6.40121692E-01
  1.61277759E-01  1.87311370E+01  2.82539436E+00  6.40121692E-01  1.61277759E-01
Contraction coefficients                   R   N=         195
  1.83107443E-03  1.39501722E-02  6.84450781E-02  2.32714336E-01  4.70192898E-01
  3.58520853E-01 -1.10777550E-01 -1.48026263E-01  1.13076702E+00  1.00000000E+00
  1.00000000E+00  1.83477216E-03  1.39946270E-02  6.85865518E-02  2.32240873E-01
  4.69069948E-01  3.60455199E-01 -1.14961182E-01 -1.69117479E-01  1.14585195E+00
  1.00000000E+00  1.00000000E+00  1.83473713E-03  1.40373228E-02  6.88426223E-02
  2.32184443E-01  4.67941348E-01  3.62311985E-01 -1.19332420E-01 -1.60854152E-01
  1.14345644E+00  1.00000000E+00  1.00000000E+00  1.83473713E-03  1.40373228E-02
  6.88426223E-02  2.32184443E-01  4.67941348E-01  3.62311985E-01 -1.19332420E-01
 -1.60854152E-01  1.14345644E+00  1.00000000E+00  1.00000000E+00  1.83473713E-03
  1.40373228E-02  6.88426223E-02  2.32184443E-01  4.67941348E-01  3.62311985E-01
 -1.19332420E-01 -1.60854152E-01  1.14345644E+00  1.00000000E+00  1.00000000E+00
  1.83473713E-03  1.40373228E-02  6.88426223E-02  2.32184443E-01  4.67941348E-01
  3.62311985E-01 -1.19332420E-01 -1.60854152E-01  1.14345644E+00  1.00000000E+00
  1.00000000E+00  1.83473713E-03  1.40373228E-02  6.88426223E-02  2.32184443E-01
  4.67941348E-01  3.62311985E-01 -1.19332420E-01 -1.60854152E-01  1.14345644E+00
  1.00000000E+00  1.00000000E+00  1.83473713E-03  1.40373228E-02  6.88426223E-02
  2.32184443E-01  4.67941348E-01  3.62311985E-01 -1.19332420E-01 -1.60854152E-01
  1.14345644E+00  1.00000000E+00  1.00000000E+00  1.83473713E-03  1.40373228E-02
  6.88426223E-02  2.32184443E-01  4.67941348E-01  3.62311985E-01 -1.19332420E-01
 -1.60854152E-01  1.14345644E+00  1.00000000E+00  1.00000000E+00  1.83473713E-03
  1.40373228E-02  6.88426223E-02  2.32184443E-01  4.67941348E-01  3.62311985E-01
 -1.19332420E-01 -1.60854152E-01  1.14345644E+00  1.00000000E+00  1.00000000E+00
  1.83473713E-03  1.40373228E-02  6.88426223E-02  2.32184443E-01  4.67941348E-01
  3.62311985E-01 -1.19332420E-01 -1.60854152E-01  1.14345644E+00  1.00000000E+00
  1.00000000E+00  1.83473713E-03  1.40373228E-02  6.88426223E-02  2.32184443E-01
  4.67941348E-01  3.62311985E-01 -1.19332420E-01 -1.60854152E-01  1.14345644E+00
  1.00000000E+00  1.00000000E+00  1.83473713E-03  1.40373228E-02  6.88426223E-02
  2.32184443E-01  4.67941348E-01  3.62311985E-01 -1.19332420E-01 -1.60854152E-01
  1.14345644E+00  1.00000000E+00  1.00000000E+00  3.34946043E-02  2.34726953E-01
  8.13757326E-01  1.00000000E+00  3.34946043E-02  2.34726953E-01  8.13757326E-01
  1.00000000E+00  3.34946043E-02  2.34726953E-01  8.13757326E-01  1.00000000E+00
  3.34946043E-02  2.34726953E-01  8.13757326E-01  1.00000000E+00  3.34946043E-02
  2.34726953E-01  8.13757326E-01  1.00000000E+00  3.34946043E-02  2.34726953E-01
  8.13757326E-01  1.00000000E+00  3.34946043E-02  2.34726953E-01  8.13757326E-01
  1.00000000E+00  3.34946043E-02  2.34726953E-01  8.13757326E-01  1.00000000E+00
  3.34946043E-02  2.34726953E-01  8.13757326E-01  1.00000000E+00  3.34946043E-02
  2.34726953E-01  8.13757326E-01  1.00000000E+00  3.34946043E-02  2.34726953E-01
  8.13757326E-01  1.00000000E+00  3.34946043E-02  2.34726953E-01  8.13757326E-01
  1.00000000E+00  3.34946043E-02  2.34726953E-01  8.13757326E-01  1.00000000E+00
P(S=P) Contraction coefficients            R   N=         195
  0.00000000E+00  0.00000000E+00  0.00000000E+00  0.00000000E+00  0.00000000E+00
  0.00000000E+00  7.08742682E-02  3.39752839E-01  7.27158577E-01  1.00000000E+00
  0.00000000E+00  0.00000000E+00  0.00000000E+00  0.00000000E+00  0.00000000E+00
  0.00000000E+00  0.00000000E+00  6.75797439E-02  3.23907296E-01  7.40895140E-01
  1.00000000E+00  0.00000000E+00  0.00000000E+00  0.00000000E+00  0.00000000E+00
  0.00000000E+00  0.00000000E+00  0.00000000E+00  6.89990666E-02  3.16423961E-01
  7.44308291E-01  1.00000000E+00  0.00000000E+00  0.00000000E+00  0.00000000E+00
  0.00000000E+00  0.00000000E+00  0.00000000E+00  0.00000000E+00  6.89990666E-02
  3.16423961E-01  7.44308291E-01  1.00000000E+00  0.00000000E+00  0.00000000E+00
  0.00000000E+00  0.00000000E+00  0.00000000E+00  0.00000000E+00  0.00000000E+00
  6.89990666E-02  3.16423961E-01  7.44308291E-01  1.00000000E+00  0.00000000E+00
  0.00000000E+00  0.00000000E+00  0.00000000E+00  0.00000000E+00  0.00000000E+00
  0.00000000E+00  6.89990666E-02  3.16423961E-01  7.44308291E-01  1.00000000E+00
  0.00000000E+00  0.00000000E+00  0.00000000E+00  0.00000000E+00  0.00000000E+00
  0.00000000E+00  0.00000000E+00  6.89990666E-02  3.16423961E-01  7.44308291E-01
  1.00000000E+00  0.00000000E+00  0.00000000E+00  0.00000000E+00  0.00000000E+00
  0.00000000E+00  0.00000000E+00  0.00000000E+00  6.89990666E-02  3.16423961E-01
  7.44308291E-01  1.00000000E+00  0.00000000E+00  0.00000000E+00  0.00000000E+00
  0.00000000E+00  0.00000000E+00  0.00000000E+00  0.00000000E+00  6.89990666E-02
  3.16423961E-01  7.44308291E-01  1.00000000E+00  0.00000000E+00  0.00000000E+00
  0.00000000E+00  0.00000000E+00  0.00000000E+00  0.00000000E+00  0.00000000E+00
  6.89990666E-02  3.16423961E-01  7.44308291E-01  1.00000000E+00  0.00000000E+00
  0.00000000E+00  0.00000000E+00  0.00000000E+00  0.00000000E+00  0.00000000E+00
  0.00000000E+00  6.89990666E-02  3.16423961E-01  7.44308291E-01  1.00000000E+00
  0.00000000E+00  0.00000000E+00  0.00000000E+00  0.00000000E+00  0.00000000E+00
  0.00000000E+00  0.00000000E+00  6.89990666E-02  3.16423961E-01  7.44308291E-01
  1.00000000E+00  0.00000000E+00  0.00000000E+00  0.00000000E+00  0.00000000E+00
  0.00000000E+00  0.00000000E+00  0.00000000E+00  6.89990666E-02  3.16423961E-01
  7.44308291E-01  1.00000000E+00  0.00000000E+00  0.00000000E+00  0.00000000E+00
  0.00000000E+00  0.00000000E+00  0.00000000E+00  0.00000000E+00  0.00000000E+00
  0.00000000E+00  0.00000000E+00  0.00000000E+00  0.00000000E+00  0.00000000E+00
  0.00000000E+00  0.00000000E+00  0.00000000E+00  0.00000000E+00  0.00000000E+00
  0.00000000E+00  0.00000000E+00  0.00000000E+00  0.00000000E+00  0.00000000E+00
  0.00000000E+00  0.00000000E+00  0.00000000E+00  0.00000000E+00  0.00000000E+00
  0.00000000E+00  0.00000000E+00  0.00000000E+00  0.00000000E+00  0.00000000E+00
  0.00000000E+00  0.00000000E+00  0.00000000E+00  0.00000000E+00  0.00000000E+00
  0.00000000E+00  0.00000000E+00  0.00000000E+00  0.00000000E+00  0.00000000E+00
  0.00000000E+00  0.00000000E+00  0.00000000E+00  0.00000000E+00  0.00000000E+00
  0.00000000E+00  0.00000000E+00  0.00000000E+00  0.00000000E+00  0.00000000E+00
Coordinates of each shell                  R   N=         234
  5.84784271E+00 -1.12986545E+00 -4.20936928E-01  5.84784271E+00 -1.12986545E+00
 -4.20936928E-01  5.84784271E+00 -1.12986545E+00 -4.20936928E-01  5.84784271E+00
 -1.12986545E+00 -4.20936928E-01  1.65024454E+00 -1.78953162E+00  3.57277485E-01
  1.65024454E+00 -1.78953162E+00  3.57277485E-01  1.65024454E+00 -1.78953162E+00
  3.57277485E-01  1.65024454E+00 -1.78953162E+00  3.57277485E-01  3.37553241E-01
  3.21285090E+00  1.83674101E+00  3.37553241E-01  3.21285090E+00  1.83674101E+00
  3.37553241E-01  3.21285090E+00  1.83674101E+00  3.37553241E-01  3.21285090E+00
  1.83674101E+00  2.16165332E+00  4.14172774E+00 -2.21155654E-01  2.16165332E+00
  4.14172774E+00 -2.21155654E-01  2.16165332E+00  4.14172774E+00 -2.21155654E-01
  2.16165332E+00  4.14172774E+00 -2.21155654E-01 -1.62678672E+00  1.43529654E+00
  8.12723153E-01 -1.62678672E+00  1.43529654E+00  8.12723153E-01 -1.62678672E+00
  1.43529654E+00  8.12723153E-01 -1.62678672E+00  1.43529654E+00  8.12723153E-01
  2.92257212E+00  1.99477563E+00 -2.01885052E+00  2.92257212E+00  1.99477563E+00
 -2.01885052E+00  2.92257212E+00  1.99477563E+00 -2.01885052E+00  2.92257212E+00
  1.99477563E+00 -2.01885052E+00 -9.09182456E-01 -1.03012776E+00  1.01578006E-01
 -9.09182456E-01 -1.03012776E+00  1.01578006E-01 -9.09182456E-01 -1.03012776E+00
  1.01578006E-01 -9.09182456E-01 -1.03012776E+00  1.01578006E-01  3.63969625E+00
 -4.11847187E-01 -6.41493719E-01  3.63969625E+00 -4.11847187E-01 -6.41493719E-01
  3.63969625E+00 -4.11847187E-01 -6.41493719E-01  3.63969625E+00 -4.11847187E-01
 -6.41493719E-01 -4.15957581E+00  2.13626744E+00  5.33042842E-01 -4.15957581E+00
  2.13626744E+00  5.33042842E-01 -4.15957581E+00  2.13626744E+00  5.33042842E-01
 -4.15957581E+00  2.13626744E+00  5.33042842E-01 -2.71700980E+00 -2.75811023E+00
 -7.64192166E-01 -2.71700980E+00 -2.75811023E+00 -7.64192166E-01 -2.71700980E+00
 -2.75811023E+00 -7.64192166E-01 -2.71700980E+00 -2.75811023E+00 -7.64192166E-01
  2.22995161E+00 -4.23299008E+00  1.50680018E+00  2.22995161E+00 -4.23299008E+00
  1.50680018E+00  2.22995161E+00 -4.23299008E+00  1.50680018E+00  2.22995161E+00
 -4.23299008E+00  1.50680018E+00 -5.96673071E+00  4.24665953E-01 -3.40804210E-01
 -5.96673071E+00  4.24665953E-01 -3.40804210E-01 -5.96673071E+00  4.24665953E-01
 -3.40804210E-01 -5.96673071E+00  4.24665953E-01 -3.40804210E-01 -5.24052801E+00
 -2.02995744E+00 -9.81194696E-01 -5.24052801E+00 -2.02995744E+00 -9.81194696E-01
 -5.24052801E+00 -2.02995744E+00 -9.81194696E-01 -5.24052801E+00 -2.02995744E+00
 -9.81194696E-01 -5.82217270E-01  4.82159756E+00  2.76072515E+00 -5.82217270E-01
  4.82159756E+00  2.76072515E+00  1.42509933E+00  2.21638292E+00  3.29398711E+00
  1.42509933E+00  2.21638292E+00  3.29398711E+00  1.27697358E+00  5.65225808E+00
 -1.32987943E+00  1.27697358E+00  5.65225808E+00 -1.32987943E+00  3.84955728E+00
  4.94722942E+00  6.68934121E-01  3.84955728E+00  4.94722942E+00  6.68934121E-01
  4.56870340E+00  2.53586533E+00 -3.14221873E+00  4.56870340E+00  2.53586533E+00
 -3.14221873E+00  1.36137747E+00  1.59408843E+00 -3.31753726E+00  1.36137747E+00
  1.59408843E+00 -3.31753726E+00 -4.72927557E+00  4.03908876E+00  1.07117887E+00
 -4.72927557E+00  4.03908876E+00  1.07117887E+00 -2.13393428E+00 -4.65180081E+00
 -1.30795320E+00 -2.13393428E+00 -4.65180081E+00 -1.30795320E+00  2.27301851E+00
 -5.75228425E+00  1.01326603E-01  2.27301851E+00 -5.75228425E+00  1.01326603E-01
  7.99218990E-01 -4.65237875E+00  2.93089531E+00  7.99218990E-01 -4.65237875E+00
  2.93089531E+00  4.09178852E+00 -4.10362323E+00  2.37687664E+00  4.09178852E+00
 -4.10362323E+00  2.37687664E+00 -7.93017542E+00  1.00244523E+00 -5.18913157E-01
 -7.93017542E+00  1.00244523E+00 -5.18913157E-01 -6.63426616E+00 -3.37853283E+00
 -1.66003439E+00 -6.63426616E+00 -3.37853283E+00 -1.66003439E+00
Constraint Structure                       R   N=          78
  5.84784271E+00 -1.12986545E+00 -4.20936928E-01  1.65024454E+00 -1.78953162E+00
  3.57277485E-01  3.37553241E-01  3.21285090E+00  1.83674101E+00  2.16165332E+00
  4.14172774E+00 -2.21155654E-01 -1.62678672E+00  1.43529654E+00  8.12723153E-01
  2.92257212E+00  1.99477563E+00 -2.01885052E+00 -9.09182456E-01 -1.03012776E+00
  1.01578006E-01  3.63969625E+00 -4.11847187E-01 -6.41493719E-01 -4.15957581E+00
  2.13626744E+00  5.33042842E-01 -2.71700980E+00 -2.75811023E+00 -7.64192166E-01
  2.22995161E+00 -4.23299008E+00  1.50680018E+00 -5.96673071E+00  4.24665953E-01
 -3.40804210E-01 -5.24052801E+00 -2.02995744E+00 -9.81194696E-01 -5.82217270E-01
  4.82159756E+00  2.76072515E+00  1.42509933E+00  2.21638292E+00  3.29398711E+00
  1.27697358E+00  5.65225808E+00 -1.32987943E+00  3.84955728E+00  4.94722942E+00
  6.68934121E-01  4.56870340E+00  2.53586533E+00 -3.14221873E+00  1.36137747E+00
  1.59408843E+00 -3.31753726E+00 -4.72927557E+00  4.03908876E+00  1.07117887E+00
 -2.13393428E+00 -4.65180081E+00 -1.30795320E+00  2.27301851E+00 -5.75228425E+00
  1.01326603E-01  7.99218990E-01 -4.65237875E+00  2.93089531E+00  4.09178852E+00
 -4.10362323E+00  2.37687664E+00 -7.93017542E+00  1.00244523E+00 -5.18913157E-01
 -6.63426616E+00 -3.37853283E+00 -1.66003439E+00
Num ILSW                                   I              100
ILSW                                       I   N=         100
           0           1           0           0           2           0
           0           0           0           0           0          -1
           0           0           0           0           0           0
           0           0           0           0           1           0
           1           0           0           0           0           0
           0           0      100000           0          -1           0
           0           0           0           0           0           0
           0           0           0           1           1           0
           0           0           1           0           0           0
           0           0           4          40           0           0
           0           0           0           0           0           0
           0           0           0           0           0           0
           0           0           0           0           0           0
           0           0           0           0           0           0
           0           0           0           0           0           0
           0           0           0           0           0           0
           0           0           0           0
Num RLSW                                   I               40
RLSW                                       R   N=          40
  1.00000000E+00  1.00000000E+00  1.00000000E+00  1.00000000E+00  1.00000000E+00
  0.00000000E+00  0.00000000E+00  1.00000000E+00  0.00000000E+00  0.00000000E+00
  0.00000000E+00  0.00000000E+00  1.00000000E+00  0.00000000E+00  0.00000000E+00
  0.00000000E+00  0.00000000E+00  1.00000000E+00  0.00000000E+00  0.00000000E+00
  0.00000000E+00  0.00000000E+00  1.00000000E+00  0.00000000E+00  0.00000000E+00
  0.00000000E+00  0.00000000E+00  1.00000000E+00  0.00000000E+00  0.00000000E+00
  0.00000000E+00  0.00000000E+00  0.00000000E+00  0.00000000E+00  0.00000000E+00
  0.00000000E+00  0.00000000E+00  0.00000000E+00  1.00000000E+00  1.00000000E+00
MxBond                                     I                4
NBond                                      I   N=          26
           1           3           4           4           3           4
           3           3           3           3           4           3
           3           1           1           1           1           1
           1           1           1           1           1           1
           1           1
IBond                                      I   N=         104
           8           0           0           0           7           8
          11           0           4           5          14          15
           3           6          16          17           3           7
           9           0           4           8          18          19
           2           5          10           0           1           2
           6           0           5          12          20           0
           7          13          21           0           2          22
          23          24           9          13          25           0
          10          12          26           0           3           0
           0           0           3           0           0           0
           4           0           0           0           4           0
           0           0           6           0           0           0
           6           0           0           0           9           0
           0           0          10           0           0           0
          11           0           0           0          11           0
           0           0          11           0           0           0