opt=Tight                                                               
Freq      RMP2-FC                                                     6-31G(d)            
Number of atoms                            I               22
Info1-9                                    I   N=           9
          31          31        1002           0           0         100
           6           2           1
Charge                                     I                0
Multiplicity                               I                1
Number of electrons                        I               82
Number of alpha electrons                  I               41
Number of beta electrons                   I               41
Number of basis functions                  I              156
Number of independent functions            I              156
Number of point charges in /Mol/           I                0
Number of translation vectors              I                0
Atomic numbers                             I   N=          22
          16          16           6           6           6           6
           6           6           1           1           1           1
           1           1           1           1           1           1
           1           1           1           1
Nuclear charges                            R   N=          22
  1.60000000E+01  1.60000000E+01  6.00000000E+00  6.00000000E+00  6.00000000E+00
  6.00000000E+00  6.00000000E+00  6.00000000E+00  1.00000000E+00  1.00000000E+00
  1.00000000E+00  1.00000000E+00  1.00000000E+00  1.00000000E+00  1.00000000E+00
  1.00000000E+00  1.00000000E+00  1.00000000E+00  1.00000000E+00  1.00000000E+00
  1.00000000E+00  1.00000000E+00
Current cartesian coordinates              R   N=          66
 -5.37301335E-01 -1.96855624E+00 -9.11245768E-01 -2.44343448E+00 -1.65343322E-01
  1.95949133E+00  4.01347592E+00  5.45746606E-01  3.85146831E-01  1.96459704E+00
  2.89797849E-01 -1.63073387E+00  5.51658727E+00 -1.89376868E+00  7.03474083E-01
  5.75366710E+00  2.74897186E+00 -2.96100263E-01 -4.67069007E+00  1.81329175E+00
  2.29464169E-01 -6.71353836E+00  3.37195428E-01 -1.15005642E+00  3.07323799E+00
  9.91178127E-01  2.17967217E+00  1.09218997E+00  2.12590947E+00 -2.02275208E+00
  2.79493924E+00 -3.91526096E-01 -3.40683037E+00  6.50963962E+00 -2.36284950E+00
 -1.05316100E+00  6.93260235E+00 -1.68662303E+00  2.19624094E+00  4.28762284E+00
 -3.47890360E+00  1.19470245E+00  6.69830697E+00  2.40095682E+00 -2.10573022E+00
  7.21699785E+00  2.99807684E+00  1.14390833E+00  4.70122074E+00  4.52322618E+00
 -4.51523514E-01 -5.49569806E+00  3.03714713E+00  1.68222936E+00 -3.61620852E+00
  3.02759931E+00 -1.07045355E+00 -5.87954680E+00 -9.18968029E-01 -2.56022850E+00
 -7.80961039E+00 -8.05468996E-01  1.74744133E-01 -7.99849985E+00  1.63581035E+00
 -2.12054539E+00
Force Field                                I                0
Int Atom Types                             I   N=          22
           0           0           0           0           0           0
           0           0           0           0           0           0
           0           0           0           0           0           0
           0           0           0           0
MM charges                                 R   N=          22
  0.00000000E+00  0.00000000E+00  0.00000000E+00  0.00000000E+00  0.00000000E+00
  0.00000000E+00  0.00000000E+00  0.00000000E+00  0.00000000E+00  0.00000000E+00
  0.00000000E+00  0.00000000E+00  0.00000000E+00  0.00000000E+00  0.00000000E+00
  0.00000000E+00  0.00000000E+00  0.00000000E+00  0.00000000E+00  0.00000000E+00
  0.00000000E+00  0.00000000E+00
Integer atomic weights                     I   N=          22
          32          32          12          12          12          12
          12          12           1           1           1           1
           1           1           1           1           1           1
           1           1           1           1
Real atomic weights                        R   N=          22
  3.19720718E+01  3.19720718E+01  1.20000000E+01  1.20000000E+01  1.20000000E+01
  1.20000000E+01  1.20000000E+01  1.20000000E+01  1.00782504E+00  1.00782504E+00
  1.00782504E+00  1.00782504E+00  1.00782504E+00  1.00782504E+00  1.00782504E+00
  1.00782504E+00  1.00782504E+00  1.00782504E+00  1.00782504E+00  1.00782504E+00
  1.00782504E+00  1.00782504E+00
Atom fragment info                         I   N=          22
           0           0           0           0           0           0
           0           0           0           0           0           0
           0           0           0           0           0           0
           0           0           0           0
Atom residue num                           I   N=          22
           0           0           0           0           0           0
           0           0           0           0           0           0
           0           0           0           0           0           0
           0           0           0           0
Nuclear spins                              I   N=          22
           0           0           0           0           0           0
           0           0           1           1           1           1
           1           1           1           1           1           1
           1           1           1           1
Nuclear ZEff                               R   N=          22
 -1.36000000E+01 -1.36000000E+01 -3.60000000E+00 -3.60000000E+00 -3.60000000E+00
 -3.60000000E+00 -3.60000000E+00 -3.60000000E+00 -1.00000000E+00 -1.00000000E+00
 -1.00000000E+00 -1.00000000E+00 -1.00000000E+00 -1.00000000E+00 -1.00000000E+00
 -1.00000000E+00 -1.00000000E+00 -1.00000000E+00 -1.00000000E+00 -1.00000000E+00
 -1.00000000E+00 -1.00000000E+00
Nuclear QMom                               R   N=          22
  0.00000000E+00  0.00000000E+00  0.00000000E+00  0.00000000E+00  0.00000000E+00
  0.00000000E+00  0.00000000E+00  0.00000000E+00  0.00000000E+00  0.00000000E+00
  0.00000000E+00  0.00000000E+00  0.00000000E+00  0.00000000E+00  0.00000000E+00
  0.00000000E+00  0.00000000E+00  0.00000000E+00  0.00000000E+00  0.00000000E+00
  0.00000000E+00  0.00000000E+00
Nuclear GFac                               R   N=          22
  0.00000000E+00  0.00000000E+00  0.00000000E+00  0.00000000E+00  0.00000000E+00
  0.00000000E+00  0.00000000E+00  0.00000000E+00  2.79284600E+00  2.79284600E+00
  2.79284600E+00  2.79284600E+00  2.79284600E+00  2.79284600E+00  2.79284600E+00
  2.79284600E+00  2.79284600E+00  2.79284600E+00  2.79284600E+00  2.79284600E+00
  2.79284600E+00  2.79284600E+00
MicOpt                                     I   N=          22
          -1          -1          -1          -1          -1          -1
          -1          -1          -1          -1          -1          -1
          -1          -1          -1          -1          -1          -1
          -1          -1          -1          -1
Number of contracted shells                I               62
Number of primitive shells                 I              156
Pure/Cartesian d shells                    I                1
Pure/Cartesian f shells                    I                0
Highest angular momentum                   I                2
Largest degree of contraction              I                6
Shell types                                I   N=          62
           0          -1          -1          -1           2           0
          -1          -1          -1           2           0          -1
          -1           2           0          -1          -1           2
           0          -1          -1           2           0          -1
          -1           2           0          -1          -1           2
           0          -1          -1           2           0           0
           0           0           0           0           0           0
           0           0           0           0           0           0
           0           0           0           0           0           0
           0           0           0           0           0           0
           0           0
Number of primitives per shell             I   N=          62
           6           6           3           1           1           6
           6           3           1           1           6           3
           1           1           6           3           1           1
           6           3           1           1           6           3
           1           1           6           3           1           1
           6           3           1           1           3           1
           3           1           3           1           3           1
           3           1           3           1           3           1
           3           1           3           1           3           1
           3           1           3           1           3           1
           3           1
Shell to atom map                          I   N=          62
           1           1           1           1           1           2
           2           2           2           2           3           3
           3           3           4           4           4           4
           5           5           5           5           6           6
           6           6           7           7           7           7
           8           8           8           8           9           9
          10          10          11          11          12          12
          13          13          14          14          15          15
          16          16          17          17          18          18
          19          19          20          20          21          21
          22          22
Primitive exponents                        R   N=         156
  2.19171000E+04  3.30149000E+03  7.54146000E+02  2.12711000E+02  6.79896000E+01
  2.30515000E+01  4.23735000E+02  1.00710000E+02  3.21599000E+01  1.18079000E+01
  4.63110000E+00  1.87025000E+00  2.61584000E+00  9.22167000E-01  3.41287000E-01
  1.17167000E-01  6.50000000E-01  2.19171000E+04  3.30149000E+03  7.54146000E+02
  2.12711000E+02  6.79896000E+01  2.30515000E+01  4.23735000E+02  1.00710000E+02
  3.21599000E+01  1.18079000E+01  4.63110000E+00  1.87025000E+00  2.61584000E+00
  9.22167000E-01  3.41287000E-01  1.17167000E-01  6.50000000E-01  3.04752488E+03
  4.57369518E+02  1.03948685E+02  2.92101553E+01  9.28666296E+00  3.16392696E+00
  7.86827235E+00  1.88128854E+00  5.44249258E-01  1.68714478E-01  8.00000000E-01
  3.04752488E+03  4.57369518E+02  1.03948685E+02  2.92101553E+01  9.28666296E+00
  3.16392696E+00  7.86827235E+00  1.88128854E+00  5.44249258E-01  1.68714478E-01
  8.00000000E-01  3.04752488E+03  4.57369518E+02  1.03948685E+02  2.92101553E+01
  9.28666296E+00  3.16392696E+00  7.86827235E+00  1.88128854E+00  5.44249258E-01
  1.68714478E-01  8.00000000E-01  3.04752488E+03  4.57369518E+02  1.03948685E+02
  2.92101553E+01  9.28666296E+00  3.16392696E+00  7.86827235E+00  1.88128854E+00
  5.44249258E-01  1.68714478E-01  8.00000000E-01  3.04752488E+03  4.57369518E+02
  1.03948685E+02  2.92101553E+01  9.28666296E+00  3.16392696E+00  7.86827235E+00
  1.88128854E+00  5.44249258E-01  1.68714478E-01  8.00000000E-01  3.04752488E+03
  4.57369518E+02  1.03948685E+02  2.92101553E+01  9.28666296E+00  3.16392696E+00
  7.86827235E+00  1.88128854E+00  5.44249258E-01  1.68714478E-01  8.00000000E-01
  1.87311370E+01  2.82539436E+00  6.40121692E-01  1.61277759E-01  1.87311370E+01
  2.82539436E+00  6.40121692E-01  1.61277759E-01  1.87311370E+01  2.82539436E+00
  6.40121692E-01  1.61277759E-01  1.87311370E+01  2.82539436E+00  6.40121692E-01
  1.61277759E-01  1.87311370E+01  2.82539436E+00  6.40121692E-01  1.61277759E-01
  1.87311370E+01  2.82539436E+00  6.40121692E-01  1.61277759E-01  1.87311370E+01
  2.82539436E+00  6.40121692E-01  1.61277759E-01  1.87311370E+01  2.82539436E+00
  6.40121692E-01  1.61277759E-01  1.87311370E+01  2.82539436E+00  6.40121692E-01
  1.61277759E-01  1.87311370E+01  2.82539436E+00  6.40121692E-01  1.61277759E-01
  1.87311370E+01  2.82539436E+00  6.40121692E-01  1.61277759E-01  1.87311370E+01
  2.82539436E+00  6.40121692E-01  1.61277759E-01  1.87311370E+01  2.82539436E+00
  6.40121692E-01  1.61277759E-01  1.87311370E+01  2.82539436E+00  6.40121692E-01
  1.61277759E-01
Contraction coefficients                   R   N=         156
  1.86924085E-03  1.42303065E-02  6.96962317E-02  2.38487108E-01  4.83307220E-01
  3.38074154E-01 -2.37677050E-03 -3.16930067E-02 -1.13317024E-01  5.60900118E-02
  5.92255124E-01  4.55006095E-01 -2.50373114E-01  6.69567631E-02  1.05450627E+00
  1.00000000E+00  1.00000000E+00  1.86924085E-03  1.42303065E-02  6.96962317E-02
  2.38487108E-01  4.83307220E-01  3.38074154E-01 -2.37677050E-03 -3.16930067E-02
 -1.13317024E-01  5.60900118E-02  5.92255124E-01  4.55006095E-01 -2.50373114E-01
  6.69567631E-02  1.05450627E+00  1.00000000E+00  1.00000000E+00  1.83473713E-03
  1.40373228E-02  6.88426223E-02  2.32184443E-01  4.67941348E-01  3.62311985E-01
 -1.19332420E-01 -1.60854152E-01  1.14345644E+00  1.00000000E+00  1.00000000E+00
  1.83473713E-03  1.40373228E-02  6.88426223E-02  2.32184443E-01  4.67941348E-01
  3.62311985E-01 -1.19332420E-01 -1.60854152E-01  1.14345644E+00  1.00000000E+00
  1.00000000E+00  1.83473713E-03  1.40373228E-02  6.88426223E-02  2.32184443E-01
  4.67941348E-01  3.62311985E-01 -1.19332420E-01 -1.60854152E-01  1.14345644E+00
  1.00000000E+00  1.00000000E+00  1.83473713E-03  1.40373228E-02  6.88426223E-02
  2.32184443E-01  4.67941348E-01  3.62311985E-01 -1.19332420E-01 -1.60854152E-01
  1.14345644E+00  1.00000000E+00  1.00000000E+00  1.83473713E-03  1.40373228E-02
  6.88426223E-02  2.32184443E-01  4.67941348E-01  3.62311985E-01 -1.19332420E-01
 -1.60854152E-01  1.14345644E+00  1.00000000E+00  1.00000000E+00  1.83473713E-03
  1.40373228E-02  6.88426223E-02  2.32184443E-01  4.67941348E-01  3.62311985E-01
 -1.19332420E-01 -1.60854152E-01  1.14345644E+00  1.00000000E+00  1.00000000E+00
  3.34946043E-02  2.34726953E-01  8.13757326E-01  1.00000000E+00  3.34946043E-02
  2.34726953E-01  8.13757326E-01  1.00000000E+00  3.34946043E-02  2.34726953E-01
  8.13757326E-01  1.00000000E+00  3.34946043E-02  2.34726953E-01  8.13757326E-01
  1.00000000E+00  3.34946043E-02  2.34726953E-01  8.13757326E-01  1.00000000E+00
  3.34946043E-02  2.34726953E-01  8.13757326E-01  1.00000000E+00  3.34946043E-02
  2.34726953E-01  8.13757326E-01  1.00000000E+00  3.34946043E-02  2.34726953E-01
  8.13757326E-01  1.00000000E+00  3.34946043E-02  2.34726953E-01  8.13757326E-01
  1.00000000E+00  3.34946043E-02  2.34726953E-01  8.13757326E-01  1.00000000E+00
  3.34946043E-02  2.34726953E-01  8.13757326E-01  1.00000000E+00  3.34946043E-02
  2.34726953E-01  8.13757326E-01  1.00000000E+00  3.34946043E-02  2.34726953E-01
  8.13757326E-01  1.00000000E+00  3.34946043E-02  2.34726953E-01  8.13757326E-01
  1.00000000E+00
P(S=P) Contraction coefficients            R   N=         156
  0.00000000E+00  0.00000000E+00  0.00000000E+00  0.00000000E+00  0.00000000E+00
  0.00000000E+00  4.06100998E-03  3.06812999E-02  1.30451999E-01  3.27204999E-01
  4.52850998E-01  2.56041999E-01 -1.45104895E-02  3.10262776E-01  7.54482456E-01
  1.00000000E+00  0.00000000E+00  0.00000000E+00  0.00000000E+00  0.00000000E+00
  0.00000000E+00  0.00000000E+00  0.00000000E+00  4.06100998E-03  3.06812999E-02
  1.30451999E-01  3.27204999E-01  4.52850998E-01  2.56041999E-01 -1.45104895E-02
  3.10262776E-01  7.54482456E-01  1.00000000E+00  0.00000000E+00  0.00000000E+00
  0.00000000E+00  0.00000000E+00  0.00000000E+00  0.00000000E+00  0.00000000E+00
  6.89990666E-02  3.16423961E-01  7.44308291E-01  1.00000000E+00  0.00000000E+00
  0.00000000E+00  0.00000000E+00  0.00000000E+00  0.00000000E+00  0.00000000E+00
  0.00000000E+00  6.89990666E-02  3.16423961E-01  7.44308291E-01  1.00000000E+00
  0.00000000E+00  0.00000000E+00  0.00000000E+00  0.00000000E+00  0.00000000E+00
  0.00000000E+00  0.00000000E+00  6.89990666E-02  3.16423961E-01  7.44308291E-01
  1.00000000E+00  0.00000000E+00  0.00000000E+00  0.00000000E+00  0.00000000E+00
  0.00000000E+00  0.00000000E+00  0.00000000E+00  6.89990666E-02  3.16423961E-01
  7.44308291E-01  1.00000000E+00  0.00000000E+00  0.00000000E+00  0.00000000E+00
  0.00000000E+00  0.00000000E+00  0.00000000E+00  0.00000000E+00  6.89990666E-02
  3.16423961E-01  7.44308291E-01  1.00000000E+00  0.00000000E+00  0.00000000E+00
  0.00000000E+00  0.00000000E+00  0.00000000E+00  0.00000000E+00  0.00000000E+00
  6.89990666E-02  3.16423961E-01  7.44308291E-01  1.00000000E+00  0.00000000E+00
  0.00000000E+00  0.00000000E+00  0.00000000E+00  0.00000000E+00  0.00000000E+00
  0.00000000E+00  0.00000000E+00  0.00000000E+00  0.00000000E+00  0.00000000E+00
  0.00000000E+00  0.00000000E+00  0.00000000E+00  0.00000000E+00  0.00000000E+00
  0.00000000E+00  0.00000000E+00  0.00000000E+00  0.00000000E+00  0.00000000E+00
  0.00000000E+00  0.00000000E+00  0.00000000E+00  0.00000000E+00  0.00000000E+00
  0.00000000E+00  0.00000000E+00  0.00000000E+00  0.00000000E+00  0.00000000E+00
  0.00000000E+00  0.00000000E+00  0.00000000E+00  0.00000000E+00  0.00000000E+00
  0.00000000E+00  0.00000000E+00  0.00000000E+00  0.00000000E+00  0.00000000E+00
  0.00000000E+00  0.00000000E+00  0.00000000E+00  0.00000000E+00  0.00000000E+00
  0.00000000E+00  0.00000000E+00  0.00000000E+00  0.00000000E+00  0.00000000E+00
  0.00000000E+00  0.00000000E+00  0.00000000E+00  0.00000000E+00  0.00000000E+00
  0.00000000E+00
Coordinates of each shell                  R   N=         186
 -5.37303996E-01 -1.96856265E+00 -9.11238073E-01 -5.37303996E-01 -1.96856265E+00
 -9.11238073E-01 -5.37303996E-01 -1.96856265E+00 -9.11238073E-01 -5.37303996E-01
 -1.96856265E+00 -9.11238073E-01 -5.37303996E-01 -1.96856265E+00 -9.11238073E-01
 -2.44343487E+00 -1.65347318E-01  1.95949903E+00 -2.44343487E+00 -1.65347318E-01
  1.95949903E+00 -2.44343487E+00 -1.65347318E-01  1.95949903E+00 -2.44343487E+00
 -1.65347318E-01  1.95949903E+00 -2.44343487E+00 -1.65347318E-01  1.95949903E+00
  4.01347644E+00  5.45734451E-01  3.85154526E-01  4.01347644E+00  5.45734451E-01
  3.85154526E-01  4.01347644E+00  5.45734451E-01  3.85154526E-01  4.01347644E+00
  5.45734451E-01  3.85154526E-01  1.96459723E+00  2.89788284E-01 -1.63072617E+00
  1.96459723E+00  2.89788284E-01 -1.63072617E+00  1.96459723E+00  2.89788284E-01
 -1.63072617E+00  1.96459723E+00  2.89788284E-01 -1.63072617E+00  5.51658470E+00
 -1.89378273E+00  7.03481778E-01  5.51658470E+00 -1.89378273E+00  7.03481778E-01
  5.51658470E+00 -1.89378273E+00  7.03481778E-01  5.51658470E+00 -1.89378273E+00
  7.03481778E-01  5.75367040E+00  2.74895751E+00 -2.96092568E-01  5.75367040E+00
  2.74895751E+00 -2.96092568E-01  5.75367040E+00  2.74895751E+00 -2.96092568E-01
  5.75367040E+00  2.74895751E+00 -2.96092568E-01 -4.67068795E+00  1.81329057E+00
  2.29471864E-01 -4.67068795E+00  1.81329057E+00  2.29471864E-01 -4.67068795E+00
  1.81329057E+00  2.29471864E-01 -4.67068795E+00  1.81329057E+00  2.29471864E-01
 -6.71353811E+00  3.37196829E-01 -1.15004872E+00 -6.71353811E+00  3.37196829E-01
 -1.15004872E+00 -6.71353811E+00  3.37196829E-01 -1.15004872E+00 -6.71353811E+00
  3.37196829E-01 -1.15004872E+00  3.07323906E+00  9.91167160E-01  2.17967987E+00
  3.07323906E+00  9.91167160E-01  2.17967987E+00  1.09219248E+00  2.12590100E+00
 -2.02274439E+00  1.09219248E+00  2.12590100E+00 -2.02274439E+00  2.79493857E+00
 -3.91536711E-01 -3.40682267E+00  2.79493857E+00 -3.91536711E-01 -3.40682267E+00
  6.50963646E+00 -2.36286481E+00 -1.05315330E+00  6.50963646E+00 -2.36286481E+00
 -1.05315330E+00  6.93260005E+00 -1.68663887E+00  2.19624863E+00  6.93260005E+00
 -1.68663887E+00  2.19624863E+00  4.28761827E+00 -3.47891610E+00  1.19471014E+00
  4.28761827E+00 -3.47891610E+00  1.19471014E+00  6.69830983E+00  2.40094127E+00
 -2.10572252E+00  6.69830983E+00  2.40094127E+00 -2.10572252E+00  7.21700147E+00
  2.99806064E+00  1.14391602E+00  7.21700147E+00  2.99806064E+00  1.14391602E+00
  4.70122628E+00  4.52321315E+00 -4.51515819E-01  4.70122628E+00  4.52321315E+00
 -4.51515819E-01 -5.49569440E+00  3.03714699E+00  1.68223706E+00 -5.49569440E+00
  3.03714699E+00  1.68223706E+00 -3.61620487E+00  3.02759679E+00 -1.07044585E+00
 -3.61620487E+00  3.02759679E+00 -1.07044585E+00 -5.87954813E+00 -9.18967683E-01
 -2.56022080E+00 -5.87954813E+00 -9.18967683E-01 -2.56022080E+00 -7.80961158E+00
 -8.05466211E-01  1.74751828E-01 -7.80961158E+00 -8.05466211E-01  1.74751828E-01
 -7.99849795E+00  1.63581337E+00 -2.12053770E+00 -7.99849795E+00  1.63581337E+00
 -2.12053770E+00
Constraint Structure                       R   N=          66
 -5.37303996E-01 -1.96856265E+00 -9.11238073E-01 -2.44343487E+00 -1.65347318E-01
  1.95949903E+00  4.01347644E+00  5.45734451E-01  3.85154526E-01  1.96459723E+00
  2.89788284E-01 -1.63072617E+00  5.51658470E+00 -1.89378273E+00  7.03481778E-01
  5.75367040E+00  2.74895751E+00 -2.96092568E-01 -4.67068795E+00  1.81329057E+00
  2.29471864E-01 -6.71353811E+00  3.37196829E-01 -1.15004872E+00  3.07323906E+00
  9.91167160E-01  2.17967987E+00  1.09219248E+00  2.12590100E+00 -2.02274439E+00
  2.79493857E+00 -3.91536711E-01 -3.40682267E+00  6.50963646E+00 -2.36286481E+00
 -1.05315330E+00  6.93260005E+00 -1.68663887E+00  2.19624863E+00  4.28761827E+00
 -3.47891610E+00  1.19471014E+00  6.69830983E+00  2.40094127E+00 -2.10572252E+00
  7.21700147E+00  2.99806064E+00  1.14391602E+00  4.70122628E+00  4.52321315E+00
 -4.51515819E-01 -5.49569440E+00  3.03714699E+00  1.68223706E+00 -3.61620487E+00
  3.02759679E+00 -1.07044585E+00 -5.87954813E+00 -9.18967683E-01 -2.56022080E+00
 -7.80961158E+00 -8.05466211E-01  1.74751828E-01 -7.99849795E+00  1.63581337E+00
 -2.12053770E+00
Num ILSW                                   I              100
ILSW                                       I   N=         100
           0           1           0           0           2           0
           0           0           0           0           0          -1
           0           0           0           0           0           0
           0           0           0           0           1           0
           1           0           0           0           0           0
           0           0      100000           0          -1           0
           0           0           0           0           0           0
           0           0           0           1           1           0
           0           0           1           0           0           0
           0           0           4          40           0           0
           0           0           0           0           0           0
           0           0           0           0           0           0
           0           0           0           0           0           0
           0           0           0           0           0           0
           0           0           0           0           0           0
           0           0           0           0           0           0
           0           0           0           0
Num RLSW                                   I               40
RLSW                                       R   N=          40
  1.00000000E+00  1.00000000E+00  1.00000000E+00  1.00000000E+00  1.00000000E+00
  0.00000000E+00  0.00000000E+00  1.00000000E+00  0.00000000E+00  0.00000000E+00
  0.00000000E+00  0.00000000E+00  1.00000000E+00  0.00000000E+00  0.00000000E+00
  0.00000000E+00  0.00000000E+00  1.00000000E+00  0.00000000E+00  0.00000000E+00
  0.00000000E+00  0.00000000E+00  1.00000000E+00  0.00000000E+00  0.00000000E+00
  0.00000000E+00  0.00000000E+00  1.00000000E+00  0.00000000E+00  0.00000000E+00
  0.00000000E+00  0.00000000E+00  0.00000000E+00  0.00000000E+00  0.00000000E+00
  0.00000000E+00  0.00000000E+00  0.00000000E+00  1.00000000E+00  1.00000000E+00
MxBond                                     I                4
NBond                                      I   N=          22
           2           2           4           4           4           4
           4           4           1           1           1           1
           1           1           1           1           1           1
           1           1           1           1
IBond                                      I   N=          88
           2           4           0           0           1           7
           0           0           4           5           6           9
           1           3          10          11           3          12
          13          14           3          15          16          17
           2           8          18          19           7          20
          21          22           3           0           0           0
           4           0           0           0           4           0
           0           0           5           0           0           0
           5           0           0           0           5           0
           0           0           6           0           0           0
           6           0           0           0           6           0
           0           0           7           0           0           0
           7           0           0           0           8           0
           0           0           8           0           0           0
           8           0           0           0
RBond                                      R   N=          88
  1.00000000E+00  1.00000000E+00  0.00000000E+00  0.00000000E+00  1.00000000E+00
  1.00000000E+00  0.00000000E+00  0.00000000E+00  1.00000000E+00  1.00000000E+00
  1.00000000E+00  1.00000000E+00  1.00000000E+00  1.00000000E+00  1.00000000E+00
  1.00000000E+00  1.00000000E+00  1.00000000E+00  1.00000000E+00  1.00000000E+00
  1.00000000E+00  1.00000000E+00  1.00000000E+00  1.00000000E+00  1.00000000E+00
  1.00000000E+00  1.00000000E+00  1.00000000E+00  1.00000000E+00  1.00000000E+00
  1.00000000E+00  1.00000000E+00  1.00000000E+00  0.00000000E+00  0.00000000E+00
  0.00000000E+00  1.00000000E+00  0.00000000E+00  0.00000000E+00  0.00000000E+00
  1.00000000E+00  0.00000000E+00  0.00000000E+00  0.00000000E+00  1.00000000E+00
  0.00000000E+00  0.00000000E+00  0.00000000E+00  1.00000000E+00  0.00000000E+00
  0.00000000E+00  0.00000000E+00  1.00000000E+00  0.00000000E+00  0.00000000E+00
  0.00000000E+00  1.00000000E+00  0.00000000E+00  0.00000000E+00  0.00000000E+00
  1.00000000E+00  0.00000000E+00  0.00000000E+00  0.00000000E+00  1.00000000E+00
  0.00000000E+00  0.00000000E+00  0.00000000E+00  1.00000000E+00  0.00000000E+00
  0.00000000E+00  0.00000000E+00  1.00000000E+00  0.00000000E+00  0.00000000E+00
  0.00000000E+00  1.00000000E+00  0.00000000E+00  0.00000000E+00  0.00000000E+00
  1.00000000E+00  0.00000000E+00  0.00000000E+00  0.00000000E+00  1.00000000E+00
  0.00000000E+00  0.00000000E+00  0.00000000E+00
Virial Ratio                               R      2.000451966540670E+00
SCF Energy                                 R     -1.030386634190926E+03
MP2 Energy                                 R     -1.031425477523208E+03
Total Energy                               R     -1.031425477523208E+03
Post-SCF wavefunction norm                 R      1.659603130128310E+00
RMS Force                                  R      7.582765791996158E-08
RMS Density                                R      3.546282388810628E-09
External E-field                           R   N=          35
  0.00000000E+00  0.00000000E+00  0.00000000E+00  0.00000000E+00  0.00000000E+00
  0.00000000E+00  0.00000000E+00  0.00000000E+00  0.00000000E+00  0.00000000E+00
  0.00000000E+00  0.00000000E+00  0.00000000E+00  0.00000000E+00  0.00000000E+00
  0.00000000E+00  0.00000000E+00  0.00000000E+00  0.00000000E+00  0.00000000E+00
  0.00000000E+00  0.00000000E+00  0.00000000E+00  0.00000000E+00  0.00000000E+00
  0.00000000E+00  0.00000000E+00  0.00000000E+00  0.00000000E+00  0.00000000E+00
  0.00000000E+00  0.00000000E+00  0.00000000E+00  0.00000000E+00  0.00000000E+00
IOpCl                                      I                0
IROHF                                      I                0
Alpha Orbital Energies                     R   N=         156
 -9.19525930E+01 -9.19524677E+01 -1.12646244E+01 -1.12604094E+01 -1.12329909E+01
 -1.12234381E+01 -1.12186734E+01 -1.12115841E+01 -8.96339128E+00 -8.96304915E+00
 -6.64631953E+00 -6.64590592E+00 -6.64421994E+00 -6.64392521E+00 -6.64227714E+00
 -6.64201065E+00 -1.11392981E+00 -1.07977714E+00 -1.01490458E+00 -9.37805071E-01
 -9.31770275E-01 -8.63422691E-01 -7.95269823E-01 -7.53607732E-01 -6.45465779E-01
 -6.32076536E-01 -6.06132724E-01 -5.93667197E-01 -5.87066816E-01 -5.53172012E-01
 -5.42787351E-01 -5.35952138E-01 -5.15373158E-01 -5.09358219E-01 -4.94249738E-01
 -4.76357902E-01 -4.72264404E-01 -4.53635184E-01 -4.28882699E-01 -3.53905448E-01
 -3.44893923E-01  1.36009517E-01  1.95000703E-01  2.01197564E-01  2.32692889E-01
  2.47453181E-01  2.64783803E-01  2.68853739E-01  2.89498060E-01  2.97035064E-01
  3.03978949E-01  3.11816168E-01  3.17460612E-01  3.28802981E-01  3.31284034E-01
  3.41034212E-01  3.49458626E-01  3.78267524E-01  3.93362210E-01  4.07100477E-01
  4.11530927E-01  4.32383767E-01  5.09957338E-01  5.44876853E-01  5.63071628E-01
  5.71073163E-01  5.93239150E-01  6.12654006E-01  6.24928339E-01  6.51569881E-01
  6.92579079E-01  7.21910012E-01  7.30656276E-01  7.45530006E-01  7.74803196E-01
  7.87155963E-01  8.03055820E-01  8.07393817E-01  8.39437658E-01  8.74949736E-01
  8.86926623E-01  9.15872559E-01  9.59917124E-01  9.64192112E-01  9.73168204E-01
  9.84441459E-01  1.03073062E+00  1.04786785E+00  1.09850407E+00  1.11286187E+00
  1.11740746E+00  1.12767145E+00  1.15197673E+00  1.15599730E+00  1.15842734E+00
  1.16404878E+00  1.17416667E+00  1.18047869E+00  1.18350314E+00  1.20144865E+00
  1.20413619E+00  1.21122630E+00  1.21202686E+00  1.23621319E+00  1.24124200E+00