10777                                                                   
Freq      RMP2-FC                                                     6-31G(d)            
Number of atoms                            I               19
Info1-9                                    I   N=           9
          31          29        1002           0           0         100
           6           2           1
Charge                                     I                0
Multiplicity                               I                1
Number of electrons                        I               88
Number of alpha electrons                  I               44
Number of beta electrons                   I               44
Number of basis functions                  I              185
Number of independent functions            I              185
Number of point charges in /Mol/           I                0
Number of translation vectors              I                0
Atomic numbers                             I   N=          19
          17           8           7           6           6           6
           6           6           6           6           6           1
           1           1           1           1           1           1
           1
Nuclear charges                            R   N=          19
  1.70000000E+01  8.00000000E+00  7.00000000E+00  6.00000000E+00  6.00000000E+00
  6.00000000E+00  6.00000000E+00  6.00000000E+00  6.00000000E+00  6.00000000E+00
  6.00000000E+00  1.00000000E+00  1.00000000E+00  1.00000000E+00  1.00000000E+00
  1.00000000E+00  1.00000000E+00  1.00000000E+00  1.00000000E+00
Current cartesian coordinates              R   N=          57
  1.93498621E+00  4.37170688E+00 -1.43595367E-02 -4.82740471E+00 -2.91229402E+00
 -4.99637433E-02 -2.20792110E+00  5.79882933E-01 -3.09198884E-02  2.07278165E-01
 -5.12179670E-01 -1.15801564E-02  2.33266107E+00  1.09032926E+00 -3.01513675E-03
  6.20723506E-01 -3.13478487E+00 -2.88594883E-03  4.78106318E+00  1.30295269E-01
  1.73680487E-02  3.07593087E+00 -4.08875522E+00  1.68677118E-02  5.16073243E+00
 -2.47642654E+00  2.67359130E-02 -4.53106155E+00 -6.06760845E-01 -3.28712117E-02
 -6.73199978E+00  1.22348467E+00  6.86107897E-02 -9.98162422E-01 -4.38256930E+00
 -1.21368898E-02 -2.23078653E+00  2.49483559E+00 -2.48838588E-02  6.36648700E+00
  1.43419977E+00  2.43640428E-02  3.34759727E+00 -6.12476943E+00  2.34086795E-02
  7.07090488E+00 -3.22915525E+00  4.17375598E-02 -7.02736850E+00  1.85512263E+00
  2.01564858E+00 -8.42214789E+00  2.33796401E-01 -5.67447785E-01 -6.41857138E+00
  2.88748196E+00 -1.11580910E+00
Force Field                                I                0
Int Atom Types                             I   N=          19
           0           0           0           0           0           0
           0           0           0           0           0           0
           0           0           0           0           0           0
           0
MM charges                                 R   N=          19
  0.00000000E+00  0.00000000E+00  0.00000000E+00  0.00000000E+00  0.00000000E+00
  0.00000000E+00  0.00000000E+00  0.00000000E+00  0.00000000E+00  0.00000000E+00
  0.00000000E+00  0.00000000E+00  0.00000000E+00  0.00000000E+00  0.00000000E+00
  0.00000000E+00  0.00000000E+00  0.00000000E+00  0.00000000E+00
Integer atomic weights                     I   N=          19
          35          16          14          12          12          12
          12          12          12          12          12           1
           1           1           1           1           1           1
           1
Real atomic weights                        R   N=          19
  3.49688527E+01  1.59949146E+01  1.40030740E+01  1.20000000E+01  1.20000000E+01
  1.20000000E+01  1.20000000E+01  1.20000000E+01  1.20000000E+01  1.20000000E+01
  1.20000000E+01  1.00782504E+00  1.00782504E+00  1.00782504E+00  1.00782504E+00
  1.00782504E+00  1.00782504E+00  1.00782504E+00  1.00782504E+00
Atom fragment info                         I   N=          19
           0           0           0           0           0           0
           0           0           0           0           0           0
           0           0           0           0           0           0
           0
Atom residue num                           I   N=          19
           0           0           0           0           0           0
           0           0           0           0           0           0
           0           0           0           0           0           0
           0
Nuclear spins                              I   N=          19
           3           0           2           0           0           0
           0           0           0           0           0           1
           1           1           1           1           1           1
           1
Nuclear ZEff                               R   N=          19
 -1.42400000E+01 -5.60000000E+00 -4.55000000E+00 -3.60000000E+00 -3.60000000E+00
 -3.60000000E+00 -3.60000000E+00 -3.60000000E+00 -3.60000000E+00 -3.60000000E+00
 -3.60000000E+00 -1.00000000E+00 -1.00000000E+00 -1.00000000E+00 -1.00000000E+00
 -1.00000000E+00 -1.00000000E+00 -1.00000000E+00 -1.00000000E+00
Nuclear QMom                               R   N=          19
 -8.16500000E+00  0.00000000E+00  2.04400000E+00  0.00000000E+00  0.00000000E+00
  0.00000000E+00  0.00000000E+00  0.00000000E+00  0.00000000E+00  0.00000000E+00
  0.00000000E+00  0.00000000E+00  0.00000000E+00  0.00000000E+00  0.00000000E+00
  0.00000000E+00  0.00000000E+00  0.00000000E+00  0.00000000E+00
Nuclear GFac                               R   N=          19
  8.21874000E-01  0.00000000E+00  4.03761000E-01  0.00000000E+00  0.00000000E+00
  0.00000000E+00  0.00000000E+00  0.00000000E+00  0.00000000E+00  0.00000000E+00
  0.00000000E+00  2.79284600E+00  2.79284600E+00  2.79284600E+00  2.79284600E+00
  2.79284600E+00  2.79284600E+00  2.79284600E+00  2.79284600E+00
MicOpt                                     I   N=          19
          -1          -1          -1          -1          -1          -1
          -1          -1          -1          -1          -1          -1
          -1          -1          -1          -1          -1          -1
          -1
Number of contracted shells                I               61
Number of primitive shells                 I              159
Pure/Cartesian d shells                    I                1
Pure/Cartesian f shells                    I                0
Highest angular momentum                   I                2
Largest degree of contraction              I                6
Shell types                                I   N=          61
           0          -1          -1          -1           2           0
          -1          -1           2           0          -1          -1
           2           0          -1          -1           2           0
          -1          -1           2           0          -1          -1
           2           0          -1          -1           2           0
          -1          -1           2           0          -1          -1
           2           0          -1          -1           2           0
          -1          -1           2           0           0           0
           0           0           0           0           0           0
           0           0           0           0           0           0
           0
Number of primitives per shell             I   N=          61
           6           6           3           1           1           6
           3           1           1           6           3           1
           1           6           3           1           1           6
           3           1           1           6           3           1
           1           6           3           1           1           6
           3           1           1           6           3           1
           1           6           3           1           1           6
           3           1           1           3           1           3
           1           3           1           3           1           3
           1           3           1           3           1           3
           1
Shell to atom map                          I   N=          61
           1           1           1           1           1           2
           2           2           2           3           3           3
           3           4           4           4           4           5
           5           5           5           6           6           6
           6           7           7           7           7           8
           8           8           8           9           9           9
           9          10          10          10          10          11
          11          11          11          12          12          13
          13          14          14          15          15          16
          16          17          17          18          18          19
          19
Primitive exponents                        R   N=         159
  2.51801000E+04  3.78035000E+03  8.60474000E+02  2.42145000E+02  7.73349000E+01
  2.62470000E+01  4.91765000E+02  1.16984000E+02  3.74153000E+01  1.37834000E+01
  5.45215000E+00  2.22588000E+00  3.18649000E+00  1.14427000E+00  4.20377000E-01
  1.42657000E-01  7.50000000E-01  5.48467166E+03  8.25234946E+02  1.88046958E+02
  5.29645000E+01  1.68975704E+01  5.79963534E+00  1.55396162E+01  3.59993359E+00
  1.01376175E+00  2.70005823E-01  8.00000000E-01  4.17351146E+03  6.27457911E+02
  1.42902093E+02  4.02343293E+01  1.28202129E+01  4.39043701E+00  1.16263619E+01
  2.71627981E+00  7.72218397E-01  2.12031498E-01  8.00000000E-01  3.04752488E+03
  4.57369518E+02  1.03948685E+02  2.92101553E+01  9.28666296E+00  3.16392696E+00
  7.86827235E+00  1.88128854E+00  5.44249258E-01  1.68714478E-01  8.00000000E-01
  3.04752488E+03  4.57369518E+02  1.03948685E+02  2.92101553E+01  9.28666296E+00
  3.16392696E+00  7.86827235E+00  1.88128854E+00  5.44249258E-01  1.68714478E-01
  8.00000000E-01  3.04752488E+03  4.57369518E+02  1.03948685E+02  2.92101553E+01
  9.28666296E+00  3.16392696E+00  7.86827235E+00  1.88128854E+00  5.44249258E-01
  1.68714478E-01  8.00000000E-01  3.04752488E+03  4.57369518E+02  1.03948685E+02
  2.92101553E+01  9.28666296E+00  3.16392696E+00  7.86827235E+00  1.88128854E+00
  5.44249258E-01  1.68714478E-01  8.00000000E-01  3.04752488E+03  4.57369518E+02
  1.03948685E+02  2.92101553E+01  9.28666296E+00  3.16392696E+00  7.86827235E+00
  1.88128854E+00  5.44249258E-01  1.68714478E-01  8.00000000E-01  3.04752488E+03
  4.57369518E+02  1.03948685E+02  2.92101553E+01  9.28666296E+00  3.16392696E+00
  7.86827235E+00  1.88128854E+00  5.44249258E-01  1.68714478E-01  8.00000000E-01
  3.04752488E+03  4.57369518E+02  1.03948685E+02  2.92101553E+01  9.28666296E+00
  3.16392696E+00  7.86827235E+00  1.88128854E+00  5.44249258E-01  1.68714478E-01
  8.00000000E-01  3.04752488E+03  4.57369518E+02  1.03948685E+02  2.92101553E+01
  9.28666296E+00  3.16392696E+00  7.86827235E+00  1.88128854E+00  5.44249258E-01
  1.68714478E-01  8.00000000E-01  1.87311370E+01  2.82539436E+00  6.40121692E-01
  1.61277759E-01  1.87311370E+01  2.82539436E+00  6.40121692E-01  1.61277759E-01
  1.87311370E+01  2.82539436E+00  6.40121692E-01  1.61277759E-01  1.87311370E+01
  2.82539436E+00  6.40121692E-01  1.61277759E-01  1.87311370E+01  2.82539436E+00
  6.40121692E-01  1.61277759E-01  1.87311370E+01  2.82539436E+00  6.40121692E-01
  1.61277759E-01  1.87311370E+01  2.82539436E+00  6.40121692E-01  1.61277759E-01
  1.87311370E+01  2.82539436E+00  6.40121692E-01  1.61277759E-01
Contraction coefficients                   R   N=         159
  1.83295985E-03  1.40341988E-02  6.90973943E-02  2.37451980E-01  4.83033960E-01
  3.39855972E-01 -2.29739142E-03 -3.07137189E-02 -1.12528069E-01  4.50163278E-02
  5.89353363E-01  4.65206287E-01 -2.51828028E-01  6.15892514E-02  1.06018433E+00
  1.00000000E+00  1.00000000E+00  1.83107443E-03  1.39501722E-02  6.84450781E-02
  2.32714336E-01  4.70192898E-01  3.58520853E-01 -1.10777550E-01 -1.48026263E-01
  1.13076702E+00  1.00000000E+00  1.00000000E+00  1.83477216E-03  1.39946270E-02
  6.85865518E-02  2.32240873E-01  4.69069948E-01  3.60455199E-01 -1.14961182E-01
 -1.69117479E-01  1.14585195E+00  1.00000000E+00  1.00000000E+00  1.83473713E-03
  1.40373228E-02  6.88426223E-02  2.32184443E-01  4.67941348E-01  3.62311985E-01
 -1.19332420E-01 -1.60854152E-01  1.14345644E+00  1.00000000E+00  1.00000000E+00
  1.83473713E-03  1.40373228E-02  6.88426223E-02  2.32184443E-01  4.67941348E-01
  3.62311985E-01 -1.19332420E-01 -1.60854152E-01  1.14345644E+00  1.00000000E+00
  1.00000000E+00  1.83473713E-03  1.40373228E-02  6.88426223E-02  2.32184443E-01
  4.67941348E-01  3.62311985E-01 -1.19332420E-01 -1.60854152E-01  1.14345644E+00
  1.00000000E+00  1.00000000E+00  1.83473713E-03  1.40373228E-02  6.88426223E-02
  2.32184443E-01  4.67941348E-01  3.62311985E-01 -1.19332420E-01 -1.60854152E-01
  1.14345644E+00  1.00000000E+00  1.00000000E+00  1.83473713E-03  1.40373228E-02
  6.88426223E-02  2.32184443E-01  4.67941348E-01  3.62311985E-01 -1.19332420E-01
 -1.60854152E-01  1.14345644E+00  1.00000000E+00  1.00000000E+00  1.83473713E-03
  1.40373228E-02  6.88426223E-02  2.32184443E-01  4.67941348E-01  3.62311985E-01
 -1.19332420E-01 -1.60854152E-01  1.14345644E+00  1.00000000E+00  1.00000000E+00
  1.83473713E-03  1.40373228E-02  6.88426223E-02  2.32184443E-01  4.67941348E-01
  3.62311985E-01 -1.19332420E-01 -1.60854152E-01  1.14345644E+00  1.00000000E+00
  1.00000000E+00  1.83473713E-03  1.40373228E-02  6.88426223E-02  2.32184443E-01
  4.67941348E-01  3.62311985E-01 -1.19332420E-01 -1.60854152E-01  1.14345644E+00
  1.00000000E+00  1.00000000E+00  3.34946043E-02  2.34726953E-01  8.13757326E-01
  1.00000000E+00  3.34946043E-02  2.34726953E-01  8.13757326E-01  1.00000000E+00
  3.34946043E-02  2.34726953E-01  8.13757326E-01  1.00000000E+00  3.34946043E-02
  2.34726953E-01  8.13757326E-01  1.00000000E+00  3.34946043E-02  2.34726953E-01
  8.13757326E-01  1.00000000E+00  3.34946043E-02  2.34726953E-01  8.13757326E-01
  1.00000000E+00  3.34946043E-02  2.34726953E-01  8.13757326E-01  1.00000000E+00
  3.34946043E-02  2.34726953E-01  8.13757326E-01  1.00000000E+00
P(S=P) Contraction coefficients            R   N=         159
  0.00000000E+00  0.00000000E+00  0.00000000E+00  0.00000000E+00  0.00000000E+00
  0.00000000E+00  3.98940088E-03  3.03177067E-02  1.29880029E-01  3.27951072E-01
  4.53527100E-01  2.52154056E-01 -1.42993147E-02  3.23572333E-01  7.43507765E-01
  1.00000000E+00  0.00000000E+00  0.00000000E+00  0.00000000E+00  0.00000000E+00
  0.00000000E+00  0.00000000E+00  0.00000000E+00  7.08742682E-02  3.39752839E-01
  7.27158577E-01  1.00000000E+00  0.00000000E+00  0.00000000E+00  0.00000000E+00
  0.00000000E+00  0.00000000E+00  0.00000000E+00  0.00000000E+00  6.75797439E-02
  3.23907296E-01  7.40895140E-01  1.00000000E+00  0.00000000E+00  0.00000000E+00
  0.00000000E+00  0.00000000E+00  0.00000000E+00  0.00000000E+00  0.00000000E+00
  6.89990666E-02  3.16423961E-01  7.44308291E-01  1.00000000E+00  0.00000000E+00
  0.00000000E+00  0.00000000E+00  0.00000000E+00  0.00000000E+00  0.00000000E+00
  0.00000000E+00  6.89990666E-02  3.16423961E-01  7.44308291E-01  1.00000000E+00
  0.00000000E+00  0.00000000E+00  0.00000000E+00  0.00000000E+00  0.00000000E+00
  0.00000000E+00  0.00000000E+00  6.89990666E-02  3.16423961E-01  7.44308291E-01
  1.00000000E+00  0.00000000E+00  0.00000000E+00  0.00000000E+00  0.00000000E+00
  0.00000000E+00  0.00000000E+00  0.00000000E+00  6.89990666E-02  3.16423961E-01
  7.44308291E-01  1.00000000E+00  0.00000000E+00  0.00000000E+00  0.00000000E+00
  0.00000000E+00  0.00000000E+00  0.00000000E+00  0.00000000E+00  6.89990666E-02
  3.16423961E-01  7.44308291E-01  1.00000000E+00  0.00000000E+00  0.00000000E+00
  0.00000000E+00  0.00000000E+00  0.00000000E+00  0.00000000E+00  0.00000000E+00
  6.89990666E-02  3.16423961E-01  7.44308291E-01  1.00000000E+00  0.00000000E+00
  0.00000000E+00  0.00000000E+00  0.00000000E+00  0.00000000E+00  0.00000000E+00
  0.00000000E+00  6.89990666E-02  3.16423961E-01  7.44308291E-01  1.00000000E+00
  0.00000000E+00  0.00000000E+00  0.00000000E+00  0.00000000E+00  0.00000000E+00
  0.00000000E+00  0.00000000E+00  6.89990666E-02  3.16423961E-01  7.44308291E-01
  1.00000000E+00  0.00000000E+00  0.00000000E+00  0.00000000E+00  0.00000000E+00
  0.00000000E+00  0.00000000E+00  0.00000000E+00  0.00000000E+00  0.00000000E+00
  0.00000000E+00  0.00000000E+00  0.00000000E+00  0.00000000E+00  0.00000000E+00
  0.00000000E+00  0.00000000E+00  0.00000000E+00  0.00000000E+00  0.00000000E+00
  0.00000000E+00  0.00000000E+00  0.00000000E+00  0.00000000E+00  0.00000000E+00
  0.00000000E+00  0.00000000E+00  0.00000000E+00  0.00000000E+00  0.00000000E+00
  0.00000000E+00  0.00000000E+00  0.00000000E+00  0.00000000E+00
Coordinates of each shell                  R   N=         183
  1.93498621E+00  4.37170688E+00 -1.43595367E-02  1.93498621E+00  4.37170688E+00
 -1.43595367E-02  1.93498621E+00  4.37170688E+00 -1.43595367E-02  1.93498621E+00
  4.37170688E+00 -1.43595367E-02  1.93498621E+00  4.37170688E+00 -1.43595367E-02
 -4.82740471E+00 -2.91229402E+00 -4.99637433E-02 -4.82740471E+00 -2.91229402E+00
 -4.99637433E-02 -4.82740471E+00 -2.91229402E+00 -4.99637433E-02 -4.82740471E+00
 -2.91229402E+00 -4.99637433E-02 -2.20792110E+00  5.79882933E-01 -3.09198884E-02
 -2.20792110E+00  5.79882933E-01 -3.09198884E-02 -2.20792110E+00  5.79882933E-01
 -3.09198884E-02 -2.20792110E+00  5.79882933E-01 -3.09198884E-02  2.07278165E-01
 -5.12179670E-01 -1.15801564E-02  2.07278165E-01 -5.12179670E-01 -1.15801564E-02
  2.07278165E-01 -5.12179670E-01 -1.15801564E-02  2.07278165E-01 -5.12179670E-01
 -1.15801564E-02  2.33266107E+00  1.09032926E+00 -3.01513675E-03  2.33266107E+00
  1.09032926E+00 -3.01513675E-03  2.33266107E+00  1.09032926E+00 -3.01513675E-03
  2.33266107E+00  1.09032926E+00 -3.01513675E-03  6.20723506E-01 -3.13478487E+00
 -2.88594883E-03  6.20723506E-01 -3.13478487E+00 -2.88594883E-03  6.20723506E-01
 -3.13478487E+00 -2.88594883E-03  6.20723506E-01 -3.13478487E+00 -2.88594883E-03
  4.78106318E+00  1.30295269E-01  1.73680487E-02  4.78106318E+00  1.30295269E-01
  1.73680487E-02  4.78106318E+00  1.30295269E-01  1.73680487E-02  4.78106318E+00
  1.30295269E-01  1.73680487E-02  3.07593087E+00 -4.08875522E+00  1.68677118E-02
  3.07593087E+00 -4.08875522E+00  1.68677118E-02  3.07593087E+00 -4.08875522E+00
  1.68677118E-02  3.07593087E+00 -4.08875522E+00  1.68677118E-02  5.16073243E+00
 -2.47642654E+00  2.67359130E-02  5.16073243E+00 -2.47642654E+00  2.67359130E-02
  5.16073243E+00 -2.47642654E+00  2.67359130E-02  5.16073243E+00 -2.47642654E+00
  2.67359130E-02 -4.53106155E+00 -6.06760845E-01 -3.28712117E-02 -4.53106155E+00
 -6.06760845E-01 -3.28712117E-02 -4.53106155E+00 -6.06760845E-01 -3.28712117E-02
 -4.53106155E+00 -6.06760845E-01 -3.28712117E-02 -6.73199978E+00  1.22348467E+00
  6.86107897E-02 -6.73199978E+00  1.22348467E+00  6.86107897E-02 -6.73199978E+00
  1.22348467E+00  6.86107897E-02 -6.73199978E+00  1.22348467E+00  6.86107897E-02
 -9.98162422E-01 -4.38256930E+00 -1.21368898E-02 -9.98162422E-01 -4.38256930E+00
 -1.21368898E-02 -2.23078653E+00  2.49483559E+00 -2.48838588E-02 -2.23078653E+00
  2.49483559E+00 -2.48838588E-02  6.36648700E+00  1.43419977E+00  2.43640428E-02
  6.36648700E+00  1.43419977E+00  2.43640428E-02  3.34759727E+00 -6.12476943E+00
  2.34086795E-02  3.34759727E+00 -6.12476943E+00  2.34086795E-02  7.07090488E+00
 -3.22915525E+00  4.17375598E-02  7.07090488E+00 -3.22915525E+00  4.17375598E-02
 -7.02736850E+00  1.85512263E+00  2.01564858E+00 -7.02736850E+00  1.85512263E+00
  2.01564858E+00 -8.42214789E+00  2.33796401E-01 -5.67447785E-01 -8.42214789E+00
  2.33796401E-01 -5.67447785E-01 -6.41857138E+00  2.88748196E+00 -1.11580910E+00
 -6.41857138E+00  2.88748196E+00 -1.11580910E+00
Constraint Structure                       R   N=          57
  1.93498621E+00  4.37170688E+00 -1.43595367E-02 -4.82740471E+00 -2.91229402E+00
 -4.99637433E-02 -2.20792110E+00  5.79882933E-01 -3.09198884E-02  2.07278165E-01
 -5.12179670E-01 -1.15801564E-02  2.33266107E+00  1.09032926E+00 -3.01513675E-03
  6.20723506E-01 -3.13478487E+00 -2.88594883E-03  4.78106318E+00  1.30295269E-01
  1.73680487E-02  3.07593087E+00 -4.08875522E+00  1.68677118E-02  5.16073243E+00
 -2.47642654E+00  2.67359130E-02 -4.53106155E+00 -6.06760845E-01 -3.28712117E-02
 -6.73199978E+00  1.22348467E+00  6.86107897E-02 -9.98162422E-01 -4.38256930E+00
 -1.21368898E-02 -2.23078653E+00  2.49483559E+00 -2.48838588E-02  6.36648700E+00
  1.43419977E+00  2.43640428E-02  3.34759727E+00 -6.12476943E+00  2.34086795E-02
  7.07090488E+00 -3.22915525E+00  4.17375598E-02 -7.02736850E+00  1.85512263E+00
  2.01564858E+00 -8.42214789E+00  2.33796401E-01 -5.67447785E-01 -6.41857138E+00
  2.88748196E+00 -1.11580910E+00
Num ILSW                                   I              100
ILSW                                       I   N=         100
           0           1           0           1           2           0
           0           0           0           0           0          -1
           0           0           0           0           0           0
           0           0           0           0           1           0
           1           0           0           0           0           0
           0           0      100000           0          -1           0
           0           0           0           0           0           0
           0           0           0           1           1           0
           0           0           1           0           0           0
           0           0           4          40           0           0
           0           0           0           0           0           0
           0           0           0           0           0           0
           0           0           0           0           0           0
           0           0           0           0           0           0
           0           0           0           0           0           0
           0           0           0           0           0           0
           0           0           0           0
Num RLSW                                   I               40
RLSW                                       R   N=          40
  1.00000000E+00  1.00000000E+00  1.00000000E+00  1.00000000E+00  1.00000000E+00
  0.00000000E+00  0.00000000E+00  1.00000000E+00  0.00000000E+00  0.00000000E+00
  0.00000000E+00  0.00000000E+00  1.00000000E+00  0.00000000E+00  0.00000000E+00
  0.00000000E+00  0.00000000E+00  1.00000000E+00  0.00000000E+00  0.00000000E+00
  0.00000000E+00  0.00000000E+00  1.00000000E+00  0.00000000E+00  0.00000000E+00
  0.00000000E+00  0.00000000E+00  1.00000000E+00  0.00000000E+00  0.00000000E+00
  0.00000000E+00  0.00000000E+00  0.00000000E+00  0.00000000E+00  0.00000000E+00
  0.00000000E+00  0.00000000E+00  0.00000000E+00  1.00000000E+00  1.00000000E+00
MxBond                                     I                4
NBond                                      I   N=          19
           1           1           3           3           3           3
           3           3           3           3           4           1
           1           1           1           1           1           1
           1
IBond                                      I   N=          76
           5           0           0           0          10           0
           0           0           4          10          13           0
           3           5           6           0           1           4
           7           0           4           8          12           0
           5           9          14           0           6           9
          15           0           7           8          16           0
           2           3          11           0          10          17
          18          19           6           0           0           0
           3           0           0           0           7           0
           0           0           8           0           0           0
           9           0           0           0          11           0
           0           0          11           0           0           0
          11           0           0           0
RBond                                      R   N=          76
  1.00000000E+00  0.00000000E+00  0.00000000E+00  0.00000000E+00  2.00000000E+00
  0.00000000E+00  0.00000000E+00  0.00000000E+00  1.00000000E+00  1.00000000E+00
  1.00000000E+00  0.00000000E+00  1.00000000E+00  1.50000000E+00  1.50000000E+00
  0.00000000E+00  1.00000000E+00  1.50000000E+00  1.50000000E+00  0.00000000E+00
  1.50000000E+00  1.50000000E+00  1.00000000E+00  0.00000000E+00  1.50000000E+00
  1.50000000E+00  1.00000000E+00  0.00000000E+00  1.50000000E+00  1.50000000E+00
  1.00000000E+00  0.00000000E+00  1.50000000E+00  1.50000000E+00  1.00000000E+00
  0.00000000E+00  2.00000000E+00  1.00000000E+00  1.00000000E+00  0.00000000E+00
  1.00000000E+00  1.00000000E+00  1.00000000E+00  1.00000000E+00  1.00000000E+00
  0.00000000E+00  0.00000000E+00  0.00000000E+00  1.00000000E+00  0.00000000E+00
  0.00000000E+00  0.00000000E+00  1.00000000E+00  0.00000000E+00  0.00000000E+00
  0.00000000E+00  1.00000000E+00  0.00000000E+00  0.00000000E+00  0.00000000E+00
  1.00000000E+00  0.00000000E+00  0.00000000E+00  0.00000000E+00  1.00000000E+00
  0.00000000E+00  0.00000000E+00  0.00000000E+00  1.00000000E+00  0.00000000E+00
  0.00000000E+00  0.00000000E+00  1.00000000E+00  0.00000000E+00  0.00000000E+00
  0.00000000E+00
Virial Ratio                               R      2.001450194944241E+00
SCF Energy                                 R     -8.964153666738141E+02
MP2 Energy                                 R     -8.979022309319565E+02
Total Energy                               R     -8.979022309319565E+02
Post-SCF wavefunction norm                 R      1.741638745469836E+00
RMS Force                                  R      1.283902949514255E-07
RMS Density                                R      2.585149920408552E-09
External E-field                           R   N=          35
  0.00000000E+00  0.00000000E+00  0.00000000E+00  0.00000000E+00  0.00000000E+00
  0.00000000E+00  0.00000000E+00  0.00000000E+00  0.00000000E+00  0.00000000E+00
  0.00000000E+00  0.00000000E+00  0.00000000E+00  0.00000000E+00  0.00000000E+00
  0.00000000E+00  0.00000000E+00  0.00000000E+00  0.00000000E+00  0.00000000E+00
  0.00000000E+00  0.00000000E+00  0.00000000E+00  0.00000000E+00  0.00000000E+00
  0.00000000E+00  0.00000000E+00  0.00000000E+00  0.00000000E+00  0.00000000E+00
  0.00000000E+00  0.00000000E+00  0.00000000E+00  0.00000000E+00  0.00000000E+00
IOpCl                                      I                0
IROHF                                      I                0
Alpha Orbital Energies                     R   N=         185
 -1.04839984E+02 -2.05416078E+01 -1.56162724E+01 -1.13735129E+01 -1.13080376E+01
 -1.13068430E+01 -1.12568136E+01 -1.12480640E+01 -1.12475115E+01 -1.12431303E+01
 -1.12383129E+01 -1.05734441E+01 -8.04275253E+00 -8.03968967E+00 -8.03944158E+00
 -1.38754109E+00 -1.26843931E+00 -1.17921664E+00 -1.12197083E+00 -1.04281946E+00
 -1.00597698E+00 -9.85397056E-01 -8.68597592E-01 -8.27204470E-01 -7.87094011E-01
 -7.33261812E-01 -6.84543792E-01 -6.73005671E-01 -6.32247637E-01 -6.30636276E-01
 -6.18630506E-01 -5.93669116E-01 -5.87756777E-01 -5.71361795E-01 -5.69619724E-01
 -5.34903840E-01 -5.25048173E-01 -5.10719718E-01 -4.74900458E-01 -4.67588176E-01
 -4.45401933E-01 -4.28279243E-01 -3.39990409E-01 -3.13236855E-01  1.23719947E-01
  1.28660709E-01  1.91466150E-01  1.99877302E-01  2.22151520E-01  2.61236875E-01
  2.78749330E-01  2.92413264E-01  3.03400914E-01  3.21423056E-01  3.29360027E-01
  3.55731591E-01  3.63858552E-01  3.75367083E-01  4.27873669E-01  4.40241514E-01
  4.58950521E-01  4.77537309E-01  5.07323648E-01  5.15441129E-01  5.63854930E-01
  5.93412605E-01  6.11837552E-01  6.25225404E-01  6.49608411E-01  6.71422690E-01
  7.18205002E-01  7.32984783E-01  7.46220691E-01  7.49434913E-01  7.72704373E-01
  7.91923619E-01  8.02298351E-01  8.15079680E-01  8.21681140E-01  8.30249932E-01
  8.31297122E-01  8.49210985E-01  8.55910180E-01  8.56957466E-01  8.97684421E-01
  9.24417982E-01  9.32512114E-01  9.63768602E-01  9.84263900E-01  9.89146945E-01
  1.06198033E+00  1.07171046E+00  1.08381621E+00  1.10227385E+00  1.10541715E+00
  1.12080450E+00  1.12390253E+00  1.13467803E+00  1.13817675E+00  1.16310509E+00
  1.17862881E+00  1.18429384E+00  1.20600169E+00  1.20685012E+00  1.21654701E+00
  1.24681779E+00  1.25973060E+00  1.27635857E+00  1.30888459E+00  1.33050749E+00
  1.34854952E+00  1.36948677E+00  1.39648628E+00  1.45900525E+00  1.48524730E+00
  1.51931759E+00  1.54163550E+00  1.55772584E+00  1.57480547E+00  1.62395211E+00
  1.64604887E+00  1.69499966E+00  1.69623924E+00  1.71282883E+00  1.73028963E+00
  1.76645295E+00  1.76995321E+00  1.80713492E+00  1.83420601E+00  1.84128809E+00
  1.92583792E+00  2.02729024E+00  2.06182200E+00  2.09671163E+00  2.11235597E+00
  2.12851903E+00  2.13335533E+00  2.15207923E+00  2.17280209E+00  2.21511872E+00
  2.25165665E+00  2.26890919E+00  2.29127924E+00  2.35293087E+00  2.36252102E+00
  2.41984211E+00  2.43788117E+00  2.45046429E+00  2.46969683E+00  2.47612914E+00
  2.52302574E+00  2.54495213E+00  2.59914175E+00  2.61763698E+00  2.65603982E+00
  2.67632322E+00  2.69083764E+00  2.74845215E+00  2.76804799E+00  2.86675186E+00
  2.90885572E+00  2.95613690E+00  2.96982771E+00  3.02445301E+00  3.03693206E+00
  3.09274051E+00  3.09515425E+00  3.12105741E+00  3.16989691E+00  3.28883822E+00
  3.33062332E+00  3.38585154E+00  3.65659520E+00  3.76834093E+00  4.45284228E+00
  4.48077711E+00  4.51420045E+00  4.53079980E+00  4.57055603E+00  4.61157675E+00