
    -----------------------------------------------------------------------
          Psi4: An Open-Source Ab Initio Electronic Structure Package
                               Psi4 1.3.2 release

                         Git: Rev {HEAD} ecbda83 


    R. M. Parrish, L. A. Burns, D. G. A. Smith, A. C. Simmonett,
    A. E. DePrince III, E. G. Hohenstein, U. Bozkaya, A. Yu. Sokolov,
    R. Di Remigio, R. M. Richard, J. F. Gonthier, A. M. James,
    H. R. McAlexander, A. Kumar, M. Saitow, X. Wang, B. P. Pritchard,
    P. Verma, H. F. Schaefer III, K. Patkowski, R. A. King, E. F. Valeev,
    F. A. Evangelista, J. M. Turney, T. D. Crawford, and C. D. Sherrill,
    J. Chem. Theory Comput. 13(7) pp 3185--3197 (2017).
    (doi: 10.1021/acs.jctc.7b00174)


                         Additional Contributions by
    P. Kraus, H. Kruse, M. H. Lechner, M. C. Schieber, R. A. Shaw,
    A. Alenaizan, R. Galvelis, Z. L. Glick, S. Lehtola, and J. P. Misiewicz

    -----------------------------------------------------------------------


    Psi4 started on: Friday, 06 November 2020 12:37AM

    Process ID: 32429
    Host:       node37.bme.utexas.edu
    PSIDATADIR: /home/xy3866/psi4conda/share/psi4
    Memory:     500.0 MiB
    Threads:    8
    
  ==> Input File <==

--------------------------------------------------------------------------
#psi4
#
memory 32 gb

molecule  {
0 1
  O       -1.9983450    -0.7282080     0.0003470
  C        0.8217550    -0.4600250    -0.0005990
  C       -0.0915640     0.7578760     0.0000330
  C        2.2978970    -0.0745110     0.0003180
  C       -1.5581360     0.4144240    -0.0001330
  H        0.5909330    -1.0784560     0.8725540
  H        0.5917080    -1.0769800    -0.8750200
  H        0.1002270     1.3980580     0.8739280
  H        0.1003310     1.3991950    -0.8729740
  H        2.5495760     0.5185710     0.8851420
  H        2.9367550    -0.9620450    -0.0002290
  H        2.5502710     0.5201590    -0.8832390
  H       -2.2527500     1.2805740    -0.0006430
units angstrom
no_reorient  #important for SAPT in psi4, default
symmetry c1  #important for SAPT in psi4, default
}

set PROPERTIES_ORIGIN ["COM"]
properties('MP2/aug-cc-pvtz', properties = ['dipole'])
--------------------------------------------------------------------------

  Memory set to  29.802 GiB by Python driver.
    SCF Algorithm Type (re)set to DF.

*** tstart() called on node37.bme.utexas.edu
*** at Fri Nov  6 00:37:56 2020

   => Loading Basis Set <=

    Name: AUG-CC-PVTZ
    Role: ORBITAL
    Keyword: BASIS
    atoms 1    entry O          line   327 file /home/xy3866/psi4conda/share/psi4/basis/aug-cc-pvtz.gbs 
    atoms 2-5  entry C          line   235 file /home/xy3866/psi4conda/share/psi4/basis/aug-cc-pvtz.gbs 
    atoms 6-13 entry H          line    36 file /home/xy3866/psi4conda/share/psi4/basis/aug-cc-pvtz.gbs 


         ---------------------------------------------------------
                                   SCF
               by Justin Turney, Rob Parrish, Andy Simmonett
                          and Daniel G. A. Smith
                              RHF Reference
                        8 Threads,  30517 MiB Core
         ---------------------------------------------------------

  ==> Geometry <==

    Molecular point group: c1
    Full point group: C1

    Geometry (in Angstrom), charge = 0, multiplicity = 1:

       Center              X                  Y                   Z               Mass       
    ------------   -----------------  -----------------  -----------------  -----------------
         O           -1.899801492602    -0.700733586616     0.000340151699    15.994914619570
         C            0.920298507398    -0.432550586616    -0.000605848301    12.000000000000
         C            0.006979507398     0.785350413384     0.000026151699    12.000000000000
         C            2.396440507398    -0.047036586616     0.000311151699    12.000000000000
         C           -1.459592492602     0.441898413384    -0.000139848301    12.000000000000
         H            0.689476507398    -1.050981586616     0.872547151699     1.007825032230
         H            0.690251507398    -1.049505586616    -0.875026848301     1.007825032230
         H            0.198770507398     1.425532413384     0.873921151699     1.007825032230
         H            0.198874507398     1.426669413384    -0.872980848301     1.007825032230
         H            2.648119507398     0.546045413384     0.885135151699     1.007825032230
         H            3.035298507398    -0.934570586616    -0.000235848301     1.007825032230
         H            2.648814507398     0.547633413384    -0.883245848301     1.007825032230
         H           -2.154206492602     1.308048413384    -0.000649848301     1.007825032230

  Running in c1 symmetry.

  Rotational constants: A =      0.49635  B =      0.08590  C =      0.07631 [cm^-1]
  Rotational constants: A =  14880.34522  B =   2575.10462  C =   2287.67880 [MHz]
  Nuclear repulsion =  171.919372795766606

  Charge       = 0
  Multiplicity = 1
  Electrons    = 40
  Nalpha       = 20
  Nbeta        = 20

  ==> Algorithm <==

  SCF Algorithm Type is DF.
  DIIS enabled.
  MOM disabled.
  Fractional occupation disabled.
  Guess Type is SAD.
  Energy threshold   = 1.00e-10
  Density threshold  = 1.00e-10
  Integral threshold = 0.00e+00

  ==> Primary Basis <==

  Basis Set: AUG-CC-PVTZ
    Blend: AUG-CC-PVTZ
    Number of shells: 142
    Number of basis function: 414
    Number of Cartesian functions: 475
    Spherical Harmonics?: true
    Max angular momentum: 3

   => Loading Basis Set <=

    Name: (AUG-CC-PVTZ AUX)
    Role: JKFIT
    Keyword: DF_BASIS_SCF
    atoms 1    entry O          line   286 file /home/xy3866/psi4conda/share/psi4/basis/aug-cc-pvtz-jkfit.gbs 
    atoms 2-5  entry C          line   162 file /home/xy3866/psi4conda/share/psi4/basis/aug-cc-pvtz-jkfit.gbs 
    atoms 6-13 entry H          line    70 file /home/xy3866/psi4conda/share/psi4/basis/aug-cc-pvtz-jkfit.gbs 

  ==> Pre-Iterations <==

   -------------------------------------------------------
    Irrep   Nso     Nmo     Nalpha   Nbeta   Ndocc  Nsocc
   -------------------------------------------------------
     A        414     414       0       0       0       0
   -------------------------------------------------------
    Total     414     414      20      20      20       0
   -------------------------------------------------------

  ==> Integral Setup <==

  DFHelper Memory: AOs need 1.161 GiB; user supplied 22.352 GiB. Using in-core AOs.

  ==> MemDFJK: Density-Fitted J/K Matrices <==

    J tasked:                   Yes
    K tasked:                   Yes
    wK tasked:                   No
    OpenMP threads:               8
    Memory [MiB]:             22888
    Algorithm:                 Core
    Schwarz Cutoff:           1E-12
    Mask sparsity (%):       2.0572
    Fitting Condition:        1E-10

   => Auxiliary Basis Set <=

  Basis Set: (AUG-CC-PVTZ AUX)
    Blend: AUG-CC-PVTZ-JKFIT
    Number of shells: 262
    Number of basis function: 888
    Number of Cartesian functions: 1095
    Spherical Harmonics?: true
    Max angular momentum: 4

  Minimum eigenvalue in the overlap matrix is 9.2351952712E-06.
  Using Symmetric Orthogonalization.

  SCF Guess: Superposition of Atomic Densities via on-the-fly atomic UHF.

  ==> Iterations <==

                           Total Energy        Delta E     RMS |[F,P]|

   @DF-RHF iter SAD:  -230.19778745867200   -2.30198e+02   0.00000e+00 
   @DF-RHF iter   1:  -230.85178267387820   -6.53995e-01   1.51159e-03 DIIS
   @DF-RHF iter   2:  -231.01128452092917   -1.59502e-01   9.16110e-04 DIIS
   @DF-RHF iter   3:  -231.06687075807764   -5.55862e-02   1.82844e-04 DIIS
   @DF-RHF iter   4:  -231.07037375378772   -3.50300e-03   8.01785e-05 DIIS
   @DF-RHF iter   5:  -231.07106864907115   -6.94895e-04   1.36903e-05 DIIS
   @DF-RHF iter   6:  -231.07110962954221   -4.09805e-05   5.64941e-06 DIIS
   @DF-RHF iter   7:  -231.07111610611327   -6.47657e-06   2.48274e-06 DIIS
   @DF-RHF iter   8:  -231.07111748639599   -1.38028e-06   8.36865e-07 DIIS
   @DF-RHF iter   9:  -231.07111768259020   -1.96194e-07   1.60865e-07 DIIS
   @DF-RHF iter  10:  -231.07111768948536   -6.89516e-09   4.27205e-08 DIIS
   @DF-RHF iter  11:  -231.07111768979033   -3.04965e-10   1.21336e-08 DIIS
   @DF-RHF iter  12:  -231.07111768981707   -2.67448e-11   3.10154e-09 DIIS
   @DF-RHF iter  13:  -231.07111768981906   -1.98952e-12   6.74689e-10 DIIS
   @DF-RHF iter  14:  -231.07111768981926   -1.98952e-13   2.76743e-10 DIIS
   @DF-RHF iter  15:  -231.07111768981960   -3.41061e-13   6.16834e-11 DIIS
  Energy and wave function converged.


  ==> Post-Iterations <==

    Orbital Energies [Eh]
    ---------------------

    Doubly Occupied:                                                      

       1A    -20.558246     2A    -11.335488     3A    -11.244749  
       4A    -11.227091     5A    -11.220240     6A     -1.382992  
       7A     -1.081546     8A     -0.976458     9A     -0.847649  
      10A     -0.770658    11A     -0.671616    12A     -0.649022  
      13A     -0.631306    14A     -0.569320    15A     -0.567106  
      16A     -0.511849    17A     -0.500170    18A     -0.490992  
      19A     -0.479380    20A     -0.421875  

    Virtual:                                                              

      21A      0.026692    22A      0.033551    23A      0.038569  
      24A      0.043077    25A      0.054853    26A      0.058599  
      27A      0.065683    28A      0.066319    29A      0.095136  
      30A      0.101281    31A      0.106385    32A      0.111789  
      33A      0.120832    34A      0.128260    35A      0.134520  
      36A      0.137640    37A      0.141842    38A      0.145410  
      39A      0.145867    40A      0.150350    41A      0.166889  
      42A      0.168543    43A      0.196188    44A      0.204273  
      45A      0.206712    46A      0.221880    47A      0.229628  
      48A      0.237524    49A      0.243671    50A      0.245706  
      51A      0.269350    52A      0.274267    53A      0.280277  
      54A      0.288965    55A      0.294133    56A      0.313281  
      57A      0.321825    58A      0.323119    59A      0.330816  
      60A      0.342523    61A      0.345856    62A      0.352202  
      63A      0.359308    64A      0.359774    65A      0.366641  
      66A      0.381343    67A      0.381793    68A      0.388621  
      69A      0.389600    70A      0.397952    71A      0.403670  
      72A      0.405145    73A      0.414220    74A      0.423763  
      75A      0.438370    76A      0.439933    77A      0.448641  
      78A      0.450038    79A      0.456080    80A      0.463700  
      81A      0.467978    82A      0.472847    83A      0.479954  
      84A      0.493595    85A      0.504050    86A      0.508295  
      87A      0.516698    88A      0.528400    89A      0.529196  
      90A      0.540185    91A      0.553739    92A      0.557993  
      93A      0.564516    94A      0.573377    95A      0.575898  
      96A      0.584796    97A      0.603069    98A      0.621330  
      99A      0.634367   100A      0.647957   101A      0.655074  
     102A      0.662327   103A      0.678883   104A      0.687301  
     105A      0.724693   106A      0.738211   107A      0.746514  
     108A      0.773903   109A      0.775796   110A      0.789276  
     111A      0.814202   112A      0.823947   113A      0.828031  
     114A      0.834448   115A      0.840065   116A      0.840442  
     117A      0.841052   118A      0.848323   119A      0.865685  
     120A      0.883134   121A      0.893746   122A      0.894188  
     123A      0.901550   124A      0.906512   125A      0.913810  
     126A      0.929790   127A      0.932299   128A      0.932911  
     129A      0.944440   130A      0.957058   131A      0.960754  
     132A      0.961998   133A      0.974772   134A      0.992509  
     135A      1.001209   136A      1.024754   137A      1.036768  
     138A      1.038470   139A      1.045148   140A      1.048268  
     141A      1.064485   142A      1.078144   143A      1.089789  
     144A      1.097332   145A      1.101863   146A      1.107598  
     147A      1.126289   148A      1.126549   149A      1.143823  
     150A      1.155984   151A      1.157890   152A      1.158228  
     153A      1.166736   154A      1.189639   155A      1.191676  
     156A      1.214122   157A      1.217571   158A      1.225893  
     159A      1.239370   160A      1.241151   161A      1.247256  
     162A      1.265116   163A      1.269955   164A      1.284070  
     165A      1.306796   166A      1.311331   167A      1.314694  
     168A      1.322697   169A      1.365944   170A      1.381911  
     171A      1.390868   172A      1.416539   173A      1.419752  
     174A      1.441688   175A      1.453747   176A      1.454190  
     177A      1.463325   178A      1.490911   179A      1.509604  
     180A      1.533415   181A      1.541427   182A      1.553147  
     183A      1.565397   184A      1.572463   185A      1.587906  
     186A      1.603466   187A      1.608458   188A      1.636619  
     189A      1.643884   190A      1.660056   191A      1.662524  
     192A      1.667346   193A      1.676808   194A      1.681523  
     195A      1.700099   196A      1.707398   197A      1.731562  
     198A      1.740873   199A      1.751437   200A      1.756147  
     201A      1.775651   202A      1.784396   203A      1.791957  
     204A      1.804903   205A      1.809722   206A      1.827954  
     207A      1.836061   208A      1.849378   209A      1.882919  
     210A      1.900104   211A      1.907744   212A      1.923479  
     213A      1.932160   214A      1.949296   215A      1.968547  
     216A      1.973023   217A      1.986540   218A      1.991933  
     219A      2.020373   220A      2.022969   221A      2.046583  
     222A      2.064887   223A      2.085054   224A      2.107774  
     225A      2.136255   226A      2.151211   227A      2.163194  
     228A      2.207802   229A      2.224715   230A      2.248440  
     231A      2.254311   232A      2.281589   233A      2.290852  
     234A      2.304787   235A      2.328100   236A      2.332939  
     237A      2.338376   238A      2.377227   239A      2.378806  
     240A      2.391376   241A      2.421426   242A      2.472857  
     243A      2.479184   244A      2.495595   245A      2.497916  
     246A      2.565967   247A      2.599602   248A      2.600237  
     249A      2.631531   250A      2.644644   251A      2.667518  
     252A      2.667989   253A      2.709912   254A      2.762688  
     255A      2.829429   256A      2.886704   257A      2.900419  
     258A      2.988567   259A      3.002491   260A      3.059089  
     261A      3.136620   262A      3.170708   263A      3.214952  
     264A      3.238022   265A      3.286781   266A      3.348843  
     267A      3.394284   268A      3.401183   269A      3.414451  
     270A      3.441039   271A      3.441834   272A      3.466975  
     273A      3.496861   274A      3.517103   275A      3.553840  
     276A      3.561385   277A      3.587429   278A      3.594540  
     279A      3.610440   280A      3.650039   281A      3.651285  
     282A      3.664573   283A      3.687130   284A      3.697374  
     285A      3.741582   286A      3.750770   287A      3.753103  
     288A      3.769356   289A      3.776107   290A      3.816040  
     291A      3.820103   292A      3.844469   293A      3.852547  
     294A      3.871332   295A      3.873596   296A      3.887698  
     297A      3.917299   298A      3.923884   299A      3.961016  
     300A      3.976372   301A      3.986427   302A      4.004238  
     303A      4.011947   304A      4.016659   305A      4.041133  
     306A      4.067882   307A      4.106668   308A      4.139412  
     309A      4.144218   310A      4.166745   311A      4.176545  
     312A      4.203379   313A      4.232502   314A      4.239436  
     315A      4.240625   316A      4.256088   317A      4.272030  
     318A      4.293074   319A      4.306267   320A      4.309104  
     321A      4.354811   322A      4.359979   323A      4.408406  
     324A      4.417524   325A      4.480246   326A      4.511491  
     327A      4.530343   328A      4.542527   329A      4.565737  
     330A      4.625618   331A      4.654447   332A      4.667439  
     333A      4.669067   334A      4.694078   335A      4.715846  
     336A      4.740219   337A      4.747765   338A      4.804334  
     339A      4.818810   340A      4.830761   341A      4.852559  
     342A      4.853457   343A      4.873030   344A      4.902086  
     345A      4.974823   346A      4.996842   347A      5.014807  
     348A      5.034839   349A      5.058000   350A      5.058703  
     351A      5.094601   352A      5.126782   353A      5.136542  
     354A      5.149096   355A      5.168257   356A      5.179803  
     357A      5.210579   358A      5.269572   359A      5.269700  
     360A      5.297101   361A      5.312551   362A      5.361209  
     363A      5.387166   364A      5.394877   365A      5.396197  
     366A      5.416354   367A      5.489496   368A      5.498158  
     369A      5.556679   370A      5.572422   371A      5.590612  
     372A      5.631154   373A      5.650923   374A      5.668856  
     375A      5.690406   376A      5.718685   377A      5.754895  
     378A      5.818241   379A      5.833587   380A      5.897309  
     381A      5.985826   382A      6.004261   383A      6.064773  
     384A      6.075313   385A      6.163661   386A      6.166168  
     387A      6.185682   388A      6.257768   389A      6.282334  
     390A      6.374337   391A      6.450928   392A      6.501126  
     393A      6.532878   394A      6.712557   395A      6.742538  
     396A      6.764614   397A      6.766397   398A      6.816771  
     399A      6.924260   400A      7.000936   401A      7.046405  
     402A      7.201555   403A      7.352438   404A      7.371580  
     405A      7.527773   406A      7.603127   407A      7.700206  
     408A      7.832011   409A      7.940080   410A     15.166528  
     411A     16.721649   412A     17.852095   413A     18.535712  
     414A     19.025233  

    Final Occupation by Irrep:
              A 
    DOCC [    20 ]

  @DF-RHF Final Energy:  -231.07111768981960

   => Energetics <=

    Nuclear Repulsion Energy =            171.9193727957666056
    One-Electron Energy =                -653.7054752734346721
    Two-Electron Energy =                 250.7149847878484650
    Total Energy =                       -231.0711176898196015

Computation Completed

*** tstop() called on node37.bme.utexas.edu at Fri Nov  6 00:38:13 2020
Module time:
	user time   =      59.87 seconds =       1.00 minutes
	system time =       4.09 seconds =       0.07 minutes
	total time  =         17 seconds =       0.28 minutes
Total time:
	user time   =      59.87 seconds =       1.00 minutes
	system time =       4.09 seconds =       0.07 minutes
	total time  =         17 seconds =       0.28 minutes
   => Loading Basis Set <=

    Name: (AUG-CC-PVTZ AUX)
    Role: RIFIT
    Keyword: DF_BASIS_MP2
    atoms 1    entry O          line   264 file /home/xy3866/psi4conda/share/psi4/basis/aug-cc-pvtz-ri.gbs 
    atoms 2-5  entry C          line   148 file /home/xy3866/psi4conda/share/psi4/basis/aug-cc-pvtz-ri.gbs 
    atoms 6-13 entry H          line    30 file /home/xy3866/psi4conda/share/psi4/basis/aug-cc-pvtz-ri.gbs 


*** tstart() called on node37.bme.utexas.edu
*** at Fri Nov  6 00:38:13 2020


  //>>>>>>>>>>>>>>>>>>>>>>>>>>>>>>>>>>>//
  //               DFMP2               //
  //<<<<<<<<<<<<<<<<<<<<<<<<<<<<<<<<<<<//

	 --------------------------------------------------------
	                          DF-MP2                         
	      2nd-Order Density-Fitted Moller-Plesset Theory     
	              RMP2 Wavefunction,   8 Threads             
	                                                         
	        Rob Parrish, Justin Turney, Andy Simmonett,      
	           Ed Hohenstein, and C. David Sherrill          
	 --------------------------------------------------------

   => Auxiliary Basis Set <=

  Basis Set: (AUG-CC-PVTZ AUX)
    Blend: AUG-CC-PVTZ-RI
    Number of shells: 252
    Number of basis function: 898
    Number of Cartesian functions: 1120
    Spherical Harmonics?: true
    Max angular momentum: 4

	 --------------------------------------------------------
	                 NBF =   414, NAUX =   898
	 --------------------------------------------------------
	   CLASS    FOCC     OCC    AOCC    AVIR     VIR    FVIR
	   PAIRS       0      20      20     394     394       0
	 --------------------------------------------------------

  DFHelper Memory: AOs need 1.161 GiB; user supplied 22.352 GiB. Using in-core AOs.


         ------------------------------------------------------------
                                     CPHF                           
                                  Rob Parrish                       
         ------------------------------------------------------------

  ==> Geometry <==

    Molecular point group: c1
    Full point group: C1

    Geometry (in Angstrom), charge = 0, multiplicity = 1:

       Center              X                  Y                   Z               Mass       
    ------------   -----------------  -----------------  -----------------  -----------------
         O           -1.899801492602    -0.700733586616     0.000340151699    15.994914619570
         C            0.920298507398    -0.432550586616    -0.000605848301    12.000000000000
         C            0.006979507398     0.785350413384     0.000026151699    12.000000000000
         C            2.396440507398    -0.047036586616     0.000311151699    12.000000000000
         C           -1.459592492602     0.441898413384    -0.000139848301    12.000000000000
         H            0.689476507398    -1.050981586616     0.872547151699     1.007825032230
         H            0.690251507398    -1.049505586616    -0.875026848301     1.007825032230
         H            0.198770507398     1.425532413384     0.873921151699     1.007825032230
         H            0.198874507398     1.426669413384    -0.872980848301     1.007825032230
         H            2.648119507398     0.546045413384     0.885135151699     1.007825032230
         H            3.035298507398    -0.934570586616    -0.000235848301     1.007825032230
         H            2.648814507398     0.547633413384    -0.883245848301     1.007825032230
         H           -2.154206492602     1.308048413384    -0.000649848301     1.007825032230

  Nuclear repulsion =  171.919372795766606
  Reference energy  = -231.071117689819602

  ==> Basis Set <==

  Basis Set: AUG-CC-PVTZ
    Blend: AUG-CC-PVTZ
    Number of shells: 142
    Number of basis function: 414
    Number of Cartesian functions: 475
    Spherical Harmonics?: true
    Max angular momentum: 3

  ==> CGRSolver (by Rob Parrish) <==

   Number of roots    =         1
   Preconditioning    =    JACOBI
   Convergence cutoff =     1E-06
   Maximum iterations =       100

  ==> CPHFRHamiltonian (by Rob Parrish) <== 

  ==> MemDFJK: Density-Fitted J/K Matrices <==

    J tasked:                   Yes
    K tasked:                   Yes
    wK tasked:                   No
    OpenMP threads:               8
    Memory [MiB]:             22888
    Algorithm:                 Core
    Schwarz Cutoff:           1E-12
    Mask sparsity (%):       2.0572
    Fitting Condition:        1E-10

   => Auxiliary Basis Set <=

  Basis Set: (AUG-CC-PVTZ AUX)
    Blend: AUG-CC-PVTZ-JKFIT
    Number of shells: 262
    Number of basis function: 888
    Number of Cartesian functions: 1095
    Spherical Harmonics?: true
    Max angular momentum: 4

  ==> CPHF Iterations <==

  => Iterations <=

             Iter  Converged  Remaining    Residual
  CGR           1          0          1   1.068E-01
  CGR           2          0          1   3.168E-02
  CGR           3          0          1   9.536E-03
  CGR           4          0          1   3.273E-03
  CGR           5          0          1   1.242E-03
  CGR           6          0          1   4.991E-04
  CGR           7          0          1   1.086E-04
  CGR           8          0          1   2.539E-05
  CGR           9          0          1   4.911E-06
  CGR          10          0          1   1.318E-06
  CGR          11          1          0   3.173E-07

    CGRSolver converged.

	-----------------------------------------------------------
	 ==================> DF-MP2 Energies <==================== 
	-----------------------------------------------------------
	 Reference Energy          =    -231.0711176898196015 [Eh]
	 Singles Energy            =      -0.0000000000000000 [Eh]
	 Same-Spin Energy          =      -0.2294105063643239 [Eh]
	 Opposite-Spin Energy      =      -0.7931882086260995 [Eh]
	 Correlation Energy        =      -1.0225987149904234 [Eh]
	 Total Energy              =    -232.0937164048100385 [Eh]
	-----------------------------------------------------------
	 ================> DF-SCS-MP2 Energies <================== 
	-----------------------------------------------------------
	 SCS Same-Spin Scale       =       0.3333333333333333 [-]
	 SCS Opposite-Spin Scale   =       1.2000000000000000 [-]
	 SCS Same-Spin Energy      =      -0.0764701687881080 [Eh]
	 SCS Opposite-Spin Energy  =      -0.9518258503513194 [Eh]
	 SCS Correlation Energy    =      -1.0282960191394275 [Eh]
	 SCS Total Energy          =    -232.0994137089590197 [Eh]
	-----------------------------------------------------------



Properties will be evaluated at   0.000000,  -0.000000,  -0.000000 [a0]

Properties computed using the MP2 density matrix

  Nuclear Dipole Moment: [e a0]
     X:     7.4488      Y:     2.0768      Z:    -0.0005

  Electronic Dipole Moment: [e a0]
     X:    -6.8500      Y:    -1.2357      Z:     0.0002

  Dipole Moment: [e a0]
     X:     0.5988      Y:     0.8410      Z:    -0.0003     Total:     1.0325

  Dipole Moment: [D]
     X:     1.5221      Y:     2.1377      Z:    -0.0007     Total:     2.6242


*** tstop() called on node37.bme.utexas.edu at Fri Nov  6 00:38:42 2020
Module time:
	user time   =     165.69 seconds =       2.76 minutes
	system time =      13.07 seconds =       0.22 minutes
	total time  =         29 seconds =       0.48 minutes
Total time:
	user time   =     225.95 seconds =       3.77 minutes
	system time =      17.19 seconds =       0.29 minutes
	total time  =         46 seconds =       0.77 minutes

    Psi4 stopped on: Friday, 06 November 2020 12:38AM
    Psi4 wall time for execution: 0:00:46.09

*** Psi4 exiting successfully. Buy a developer a beer!
