
    -----------------------------------------------------------------------
          Psi4: An Open-Source Ab Initio Electronic Structure Package
                               Psi4 1.3.2 release

                         Git: Rev {HEAD} ecbda83 


    R. M. Parrish, L. A. Burns, D. G. A. Smith, A. C. Simmonett,
    A. E. DePrince III, E. G. Hohenstein, U. Bozkaya, A. Yu. Sokolov,
    R. Di Remigio, R. M. Richard, J. F. Gonthier, A. M. James,
    H. R. McAlexander, A. Kumar, M. Saitow, X. Wang, B. P. Pritchard,
    P. Verma, H. F. Schaefer III, K. Patkowski, R. A. King, E. F. Valeev,
    F. A. Evangelista, J. M. Turney, T. D. Crawford, and C. D. Sherrill,
    J. Chem. Theory Comput. 13(7) pp 3185--3197 (2017).
    (doi: 10.1021/acs.jctc.7b00174)


                         Additional Contributions by
    P. Kraus, H. Kruse, M. H. Lechner, M. C. Schieber, R. A. Shaw,
    A. Alenaizan, R. Galvelis, Z. L. Glick, S. Lehtola, and J. P. Misiewicz

    -----------------------------------------------------------------------


    Psi4 started on: Wednesday, 10 February 2021 03:53PM

    Process ID: 2929
    Host:       node144.bme.utexas.edu
    PSIDATADIR: /home/xy3866/psi4conda/share/psi4
    Memory:     500.0 MiB
    Threads:    8
    
  ==> Input File <==

--------------------------------------------------------------------------
#psi4
#
memory 32 gb

molecule  {
0 1
  O       -0.3732950    -1.0875170     0.0000230
  N       -0.3944950     1.1585740    -0.0000440
  C        0.9282580    -0.6566220     0.0000340
  C        0.9194130     0.7048960    -0.0000320
  C       -1.1010560     0.0631240     0.0000150
  H        1.6883177    -1.4215890    -0.0499360
  H        1.7555780     1.3888440    -0.0000640
  H       -2.1757640    -0.0455290     0.0000210
units angstrom
no_reorient  #important for SAPT in psi4, default
symmetry c1  #important for SAPT in psi4, default
}

set PROPERTIES_ORIGIN ["COM"]
properties('MP2/aug-cc-pvtz', properties = ['dipole'])
--------------------------------------------------------------------------

  Memory set to  29.802 GiB by Python driver.
    SCF Algorithm Type (re)set to DF.

*** tstart() called on node144.bme.utexas.edu
*** at Wed Feb 10 15:53:12 2021

   => Loading Basis Set <=

    Name: AUG-CC-PVTZ
    Role: ORBITAL
    Keyword: BASIS
    atoms 1   entry O          line   327 file /home/xy3866/psi4conda/share/psi4/basis/aug-cc-pvtz.gbs 
    atoms 2   entry N          line   281 file /home/xy3866/psi4conda/share/psi4/basis/aug-cc-pvtz.gbs 
    atoms 3-5 entry C          line   235 file /home/xy3866/psi4conda/share/psi4/basis/aug-cc-pvtz.gbs 
    atoms 6-8 entry H          line    36 file /home/xy3866/psi4conda/share/psi4/basis/aug-cc-pvtz.gbs 


         ---------------------------------------------------------
                                   SCF
               by Justin Turney, Rob Parrish, Andy Simmonett
                          and Daniel G. A. Smith
                              RHF Reference
                        8 Threads,  30517 MiB Core
         ---------------------------------------------------------

  ==> Geometry <==

    Molecular point group: c1
    Full point group: C1

    Geometry (in Angstrom), charge = 0, multiplicity = 1:

       Center              X                  Y                   Z               Mass       
    ------------   -----------------  -----------------  -----------------  -----------------
         O           -0.355075602829    -1.088773788802     0.000753415392    15.994914619570
         N           -0.376275602829     1.157317211198     0.000686415392    14.003074004430
         C            0.946477397171    -0.657878788802     0.000764415392    12.000000000000
         C            0.937632397171     0.703639211198     0.000698415392    12.000000000000
         C           -1.082836602829     0.061867211198     0.000745415392    12.000000000000
         H            1.706537097171    -1.422845788802    -0.049205584608     1.007825032230
         H            1.773797397171     1.387587211198     0.000666415392     1.007825032230
         H           -2.157544602829    -0.046785788802     0.000751415392     1.007825032230

  Running in c1 symmetry.

  Rotational constants: A =      0.33606  B =      0.31873  C =      0.16359 [cm^-1]
  Rotational constants: A =  10074.90608  B =   9555.36846  C =   4904.34400 [MHz]
  Nuclear repulsion =  162.658787274381979

  Charge       = 0
  Multiplicity = 1
  Electrons    = 36
  Nalpha       = 18
  Nbeta        = 18

  ==> Algorithm <==

  SCF Algorithm Type is DF.
  DIIS enabled.
  MOM disabled.
  Fractional occupation disabled.
  Guess Type is SAD.
  Energy threshold   = 1.00e-10
  Density threshold  = 1.00e-10
  Integral threshold = 0.00e+00

  ==> Primary Basis <==

  Basis Set: AUG-CC-PVTZ
    Blend: AUG-CC-PVTZ
    Number of shells: 97
    Number of basis function: 299
    Number of Cartesian functions: 350
    Spherical Harmonics?: true
    Max angular momentum: 3

   => Loading Basis Set <=

    Name: (AUG-CC-PVTZ AUX)
    Role: JKFIT
    Keyword: DF_BASIS_SCF
    atoms 1   entry O          line   286 file /home/xy3866/psi4conda/share/psi4/basis/aug-cc-pvtz-jkfit.gbs 
    atoms 2   entry N          line   224 file /home/xy3866/psi4conda/share/psi4/basis/aug-cc-pvtz-jkfit.gbs 
    atoms 3-5 entry C          line   162 file /home/xy3866/psi4conda/share/psi4/basis/aug-cc-pvtz-jkfit.gbs 
    atoms 6-8 entry H          line    70 file /home/xy3866/psi4conda/share/psi4/basis/aug-cc-pvtz-jkfit.gbs 

  ==> Pre-Iterations <==

   -------------------------------------------------------
    Irrep   Nso     Nmo     Nalpha   Nbeta   Ndocc  Nsocc
   -------------------------------------------------------
     A        299     299       0       0       0       0
   -------------------------------------------------------
    Total     299     299      18      18      18       0
   -------------------------------------------------------

  ==> Integral Setup <==

  DFHelper Memory: AOs need 0.463 GiB; user supplied 22.352 GiB. Using in-core AOs.

  ==> MemDFJK: Density-Fitted J/K Matrices <==

    J tasked:                   Yes
    K tasked:                   Yes
    wK tasked:                   No
    OpenMP threads:               8
    Memory [MiB]:             22888
    Algorithm:                 Core
    Schwarz Cutoff:           1E-12
    Mask sparsity (%):       0.3736
    Fitting Condition:        1E-10

   => Auxiliary Basis Set <=

  Basis Set: (AUG-CC-PVTZ AUX)
    Blend: AUG-CC-PVTZ-JKFIT
    Number of shells: 192
    Number of basis function: 658
    Number of Cartesian functions: 820
    Spherical Harmonics?: true
    Max angular momentum: 4

  Minimum eigenvalue in the overlap matrix is 9.4180617376E-06.
  Using Symmetric Orthogonalization.

  SCF Guess: Superposition of Atomic Densities via on-the-fly atomic UHF.

  ==> Iterations <==

                           Total Energy        Delta E     RMS |[F,P]|

   @DF-RHF iter SAD:  -244.14996067096101   -2.44150e+02   0.00000e+00 
   @DF-RHF iter   1:  -244.61339789656796   -4.63437e-01   1.47397e-03 DIIS
   @DF-RHF iter   2:  -244.68971928976330   -7.63214e-02   8.62717e-04 DIIS
   @DF-RHF iter   3:  -244.71745387098395   -2.77346e-02   1.96793e-04 DIIS
   @DF-RHF iter   4:  -244.71945456745837   -2.00070e-03   7.87312e-05 DIIS
   @DF-RHF iter   5:  -244.71973059562399   -2.76028e-04   1.80138e-05 DIIS
   @DF-RHF iter   6:  -244.71975920214373   -2.86065e-05   8.24115e-06 DIIS
   @DF-RHF iter   7:  -244.71976620655380   -7.00441e-06   3.19989e-06 DIIS
   @DF-RHF iter   8:  -244.71976763247716   -1.42592e-06   9.36704e-07 DIIS
   @DF-RHF iter   9:  -244.71976777741722   -1.44940e-07   2.13820e-07 DIIS
   @DF-RHF iter  10:  -244.71976778416501   -6.74780e-09   9.94204e-08 DIIS
   @DF-RHF iter  11:  -244.71976778532937   -1.16435e-09   3.80960e-08 DIIS
   @DF-RHF iter  12:  -244.71976778560446   -2.75094e-10   1.35714e-08 DIIS
   @DF-RHF iter  13:  -244.71976778563700   -3.25429e-11   4.25231e-09 DIIS
   @DF-RHF iter  14:  -244.71976778563868   -1.67688e-12   2.30907e-09 DIIS
   @DF-RHF iter  15:  -244.71976778563985   -1.16529e-12   6.37406e-10 DIIS
   @DF-RHF iter  16:  -244.71976778564050   -6.53699e-13   3.85529e-10 DIIS
   @DF-RHF iter  17:  -244.71976778564002    4.83169e-13   1.03927e-10 DIIS
   @DF-RHF iter  18:  -244.71976778563973    2.84217e-13   3.19217e-11 DIIS
  Energy and wave function converged.


  ==> Post-Iterations <==

    Orbital Energies [Eh]
    ---------------------

    Doubly Occupied:                                                      

       1A    -20.647681     2A    -15.575547     3A    -11.342781  
       4A    -11.301376     5A    -11.269409     6A     -1.488450  
       7A     -1.236187     8A     -1.034784     9A     -0.843447  
      10A     -0.824121    11A     -0.753769    12A     -0.660783  
      13A     -0.629906    14A     -0.597535    15A     -0.582835  
      16A     -0.469279    17A     -0.458379    18A     -0.347400  

    Virtual:                                                              

      19A      0.028241    20A      0.035728    21A      0.040672  
      22A      0.070810    23A      0.080560    24A      0.086569  
      25A      0.099627    26A      0.107088    27A      0.110475  
      28A      0.112697    29A      0.125080    30A      0.130377  
      31A      0.136380    32A      0.146454    33A      0.174678  
      34A      0.179561    35A      0.185786    36A      0.202572  
      37A      0.212905    38A      0.222294    39A      0.225119  
      40A      0.236079    41A      0.244019    42A      0.257362  
      43A      0.272435    44A      0.281259    45A      0.285396  
      46A      0.309091    47A      0.311562    48A      0.324985  
      49A      0.332675    50A      0.353164    51A      0.361189  
      52A      0.381426    53A      0.390535    54A      0.402809  
      55A      0.408300    56A      0.413850    57A      0.421988  
      58A      0.431656    59A      0.448918    60A      0.453842  
      61A      0.456075    62A      0.469706    63A      0.480247  
      64A      0.481092    65A      0.495702    66A      0.502615  
      67A      0.508565    68A      0.528294    69A      0.558680  
      70A      0.567051    71A      0.589460    72A      0.595596  
      73A      0.609489    74A      0.618816    75A      0.665518  
      76A      0.683708    77A      0.692012    78A      0.694416  
      79A      0.701220    80A      0.710987    81A      0.722673  
      82A      0.745149    83A      0.757018    84A      0.782956  
      85A      0.793215    86A      0.803384    87A      0.817589  
      88A      0.845273    89A      0.861610    90A      0.866447  
      91A      0.887252    92A      0.900533    93A      0.911041  
      94A      0.916515    95A      0.919094    96A      0.937003  
      97A      0.941032    98A      0.962562    99A      0.972917  
     100A      0.981604   101A      0.988109   102A      1.008990  
     103A      1.034960   104A      1.037865   105A      1.046389  
     106A      1.062436   107A      1.064275   108A      1.071591  
     109A      1.094546   110A      1.096912   111A      1.105425  
     112A      1.118397   113A      1.136536   114A      1.143892  
     115A      1.170628   116A      1.177864   117A      1.204978  
     118A      1.208786   119A      1.229412   120A      1.249192  
     121A      1.287495   122A      1.324528   123A      1.349857  
     124A      1.355555   125A      1.405058   126A      1.419648  
     127A      1.431403   128A      1.448043   129A      1.472760  
     130A      1.485968   131A      1.489403   132A      1.511742  
     133A      1.514659   134A      1.537234   135A      1.547225  
     136A      1.600602   137A      1.619698   138A      1.631520  
     139A      1.649709   140A      1.701450   141A      1.703794  
     142A      1.723208   143A      1.740761   144A      1.757842  
     145A      1.768427   146A      1.774691   147A      1.786882  
     148A      1.823808   149A      1.862208   150A      1.914496  
     151A      1.917510   152A      1.962203   153A      1.968481  
     154A      1.994046   155A      2.008817   156A      2.028459  
     157A      2.037236   158A      2.070515   159A      2.108745  
     160A      2.129713   161A      2.151370   162A      2.186765  
     163A      2.206339   164A      2.210182   165A      2.220833  
     166A      2.254675   167A      2.275688   168A      2.312809  
     169A      2.397049   170A      2.413179   171A      2.415539  
     172A      2.437809   173A      2.458654   174A      2.487746  
     175A      2.507903   176A      2.519622   177A      2.551442  
     178A      2.595585   179A      2.631290   180A      2.673996  
     181A      2.689263   182A      2.767755   183A      2.784004  
     184A      2.866235   185A      2.911497   186A      2.941505  
     187A      2.962069   188A      3.045739   189A      3.065351  
     190A      3.107971   191A      3.161293   192A      3.173580  
     193A      3.179670   194A      3.220408   195A      3.262174  
     196A      3.276382   197A      3.343165   198A      3.357274  
     199A      3.380580   200A      3.450558   201A      3.460357  
     202A      3.484793   203A      3.497791   204A      3.537800  
     205A      3.589324   206A      3.625960   207A      3.653834  
     208A      3.677657   209A      3.698687   210A      3.708666  
     211A      3.714268   212A      3.722372   213A      3.751759  
     214A      3.775421   215A      3.807524   216A      3.822909  
     217A      3.858299   218A      3.948176   219A      3.954679  
     220A      3.975001   221A      3.977714   222A      4.002114  
     223A      4.037158   224A      4.105186   225A      4.117550  
     226A      4.166241   227A      4.174489   228A      4.184332  
     229A      4.189892   230A      4.197257   231A      4.210335  
     232A      4.270532   233A      4.298739   234A      4.364777  
     235A      4.381970   236A      4.415185   237A      4.427049  
     238A      4.446561   239A      4.474893   240A      4.554136  
     241A      4.562571   242A      4.594027   243A      4.690058  
     244A      4.784113   245A      4.799420   246A      4.845515  
     247A      4.852060   248A      4.942867   249A      4.952426  
     250A      4.978662   251A      5.023956   252A      5.055101  
     253A      5.071403   254A      5.139956   255A      5.154997  
     256A      5.221652   257A      5.249815   258A      5.331946  
     259A      5.443263   260A      5.518236   261A      5.539362  
     262A      5.564869   263A      5.569081   264A      5.688427  
     265A      5.741589   266A      5.756941   267A      5.773875  
     268A      5.794070   269A      5.886249   270A      5.889506  
     271A      5.937399   272A      6.079371   273A      6.186045  
     274A      6.281706   275A      6.444525   276A      6.503425  
     277A      6.522263   278A      6.557550   279A      6.661243  
     280A      6.737221   281A      6.849106   282A      6.888589  
     283A      6.965721   284A      6.971984   285A      7.003815  
     286A      7.076384   287A      7.340284   288A      7.439590  
     289A      7.511089   290A      7.648947   291A      7.732103  
     292A      7.785177   293A      8.267618   294A      8.340498  
     295A     14.310181   296A     15.969268   297A     16.922322  
     298A     17.521302   299A     17.822417  

    Final Occupation by Irrep:
              A 
    DOCC [    18 ]

  @DF-RHF Final Energy:  -244.71976778563973

   => Energetics <=

    Nuclear Repulsion Energy =            162.6587872743819787
    One-Electron Energy =                -654.6297724374810514
    Two-Electron Energy =                 247.2512173774593123
    Total Energy =                       -244.7197677856397320

Computation Completed

*** tstop() called on node144.bme.utexas.edu at Wed Feb 10 15:53:17 2021
Module time:
	user time   =      31.78 seconds =       0.53 minutes
	system time =       1.31 seconds =       0.02 minutes
	total time  =          5 seconds =       0.08 minutes
Total time:
	user time   =      31.78 seconds =       0.53 minutes
	system time =       1.31 seconds =       0.02 minutes
	total time  =          5 seconds =       0.08 minutes
   => Loading Basis Set <=

    Name: (AUG-CC-PVTZ AUX)
    Role: RIFIT
    Keyword: DF_BASIS_MP2
    atoms 1   entry O          line   264 file /home/xy3866/psi4conda/share/psi4/basis/aug-cc-pvtz-ri.gbs 
    atoms 2   entry N          line   206 file /home/xy3866/psi4conda/share/psi4/basis/aug-cc-pvtz-ri.gbs 
    atoms 3-5 entry C          line   148 file /home/xy3866/psi4conda/share/psi4/basis/aug-cc-pvtz-ri.gbs 
    atoms 6-8 entry H          line    30 file /home/xy3866/psi4conda/share/psi4/basis/aug-cc-pvtz-ri.gbs 


*** tstart() called on node144.bme.utexas.edu
*** at Wed Feb 10 15:53:17 2021


  //>>>>>>>>>>>>>>>>>>>>>>>>>>>>>>>>>>>//
  //               DFMP2               //
  //<<<<<<<<<<<<<<<<<<<<<<<<<<<<<<<<<<<//

	 --------------------------------------------------------
	                          DF-MP2                         
	      2nd-Order Density-Fitted Moller-Plesset Theory     
	              RMP2 Wavefunction,   8 Threads             
	                                                         
	        Rob Parrish, Justin Turney, Andy Simmonett,      
	           Ed Hohenstein, and C. David Sherrill          
	 --------------------------------------------------------

   => Auxiliary Basis Set <=

  Basis Set: (AUG-CC-PVTZ AUX)
    Blend: AUG-CC-PVTZ-RI
    Number of shells: 182
    Number of basis function: 668
    Number of Cartesian functions: 845
    Spherical Harmonics?: true
    Max angular momentum: 4

	 --------------------------------------------------------
	                 NBF =   299, NAUX =   668
	 --------------------------------------------------------
	   CLASS    FOCC     OCC    AOCC    AVIR     VIR    FVIR
	   PAIRS       0      18      18     281     281       0
	 --------------------------------------------------------

  DFHelper Memory: AOs need 0.463 GiB; user supplied 22.352 GiB. Using in-core AOs.


         ------------------------------------------------------------
                                     CPHF                           
                                  Rob Parrish                       
         ------------------------------------------------------------

  ==> Geometry <==

    Molecular point group: c1
    Full point group: C1

    Geometry (in Angstrom), charge = 0, multiplicity = 1:

       Center              X                  Y                   Z               Mass       
    ------------   -----------------  -----------------  -----------------  -----------------
         O           -0.355075602829    -1.088773788802     0.000753415392    15.994914619570
         N           -0.376275602829     1.157317211198     0.000686415392    14.003074004430
         C            0.946477397171    -0.657878788802     0.000764415392    12.000000000000
         C            0.937632397171     0.703639211198     0.000698415392    12.000000000000
         C           -1.082836602829     0.061867211198     0.000745415392    12.000000000000
         H            1.706537097171    -1.422845788802    -0.049205584608     1.007825032230
         H            1.773797397171     1.387587211198     0.000666415392     1.007825032230
         H           -2.157544602829    -0.046785788802     0.000751415392     1.007825032230

  Nuclear repulsion =  162.658787274381979
  Reference energy  = -244.719767785639732

  ==> Basis Set <==

  Basis Set: AUG-CC-PVTZ
    Blend: AUG-CC-PVTZ
    Number of shells: 97
    Number of basis function: 299
    Number of Cartesian functions: 350
    Spherical Harmonics?: true
    Max angular momentum: 3

  ==> CGRSolver (by Rob Parrish) <==

   Number of roots    =         1
   Preconditioning    =    JACOBI
   Convergence cutoff =     1E-06
   Maximum iterations =       100

  ==> CPHFRHamiltonian (by Rob Parrish) <== 

  ==> MemDFJK: Density-Fitted J/K Matrices <==

    J tasked:                   Yes
    K tasked:                   Yes
    wK tasked:                   No
    OpenMP threads:               8
    Memory [MiB]:             22888
    Algorithm:                 Core
    Schwarz Cutoff:           1E-12
    Mask sparsity (%):       0.3736
    Fitting Condition:        1E-10

   => Auxiliary Basis Set <=

  Basis Set: (AUG-CC-PVTZ AUX)
    Blend: AUG-CC-PVTZ-JKFIT
    Number of shells: 192
    Number of basis function: 658
    Number of Cartesian functions: 820
    Spherical Harmonics?: true
    Max angular momentum: 4

  ==> CPHF Iterations <==

  => Iterations <=

             Iter  Converged  Remaining    Residual
  CGR           1          0          1   1.203E-01
  CGR           2          0          1   4.453E-02
  CGR           3          0          1   2.116E-02
  CGR           4          0          1   6.827E-03
  CGR           5          0          1   2.515E-03
  CGR           6          0          1   9.340E-04
  CGR           7          0          1   3.220E-04
  CGR           8          0          1   1.091E-04
  CGR           9          0          1   2.420E-05
  CGR          10          0          1   9.851E-06
  CGR          11          0          1   2.361E-06
  CGR          12          1          0   7.439E-07

    CGRSolver converged.

	-----------------------------------------------------------
	 ==================> DF-MP2 Energies <==================== 
	-----------------------------------------------------------
	 Reference Energy          =    -244.7197677856397320 [Eh]
	 Singles Energy            =      -0.0000000000000000 [Eh]
	 Same-Spin Energy          =      -0.2506085212312201 [Eh]
	 Opposite-Spin Energy      =      -0.7543362843768096 [Eh]
	 Correlation Energy        =      -1.0049448056080297 [Eh]
	 Total Energy              =    -245.7247125912477657 [Eh]
	-----------------------------------------------------------
	 ================> DF-SCS-MP2 Energies <================== 
	-----------------------------------------------------------
	 SCS Same-Spin Scale       =       0.3333333333333333 [-]
	 SCS Opposite-Spin Scale   =       1.2000000000000000 [-]
	 SCS Same-Spin Energy      =      -0.0835361737437400 [Eh]
	 SCS Opposite-Spin Energy  =      -0.9052035412521714 [Eh]
	 SCS Correlation Energy    =      -0.9887397149959114 [Eh]
	 SCS Total Energy          =    -245.7085075006356476 [Eh]
	-----------------------------------------------------------



Properties will be evaluated at   0.000000,   0.000000,  -0.000000 [a0]

Properties computed using the MP2 density matrix

  Nuclear Dipole Moment: [e a0]
     X:     1.2395      Y:    -0.0855      Z:    -0.0448

  Electronic Dipole Moment: [e a0]
     X:    -0.9312      Y:    -0.4724      Z:     0.0270

  Dipole Moment: [e a0]
     X:     0.3083      Y:    -0.5579      Z:    -0.0178     Total:     0.6377

  Dipole Moment: [D]
     X:     0.7835      Y:    -1.4181      Z:    -0.0453     Total:     1.6208


*** tstop() called on node144.bme.utexas.edu at Wed Feb 10 15:53:28 2021
Module time:
	user time   =      70.35 seconds =       1.17 minutes
	system time =       2.18 seconds =       0.04 minutes
	total time  =         11 seconds =       0.18 minutes
Total time:
	user time   =     102.76 seconds =       1.71 minutes
	system time =       3.54 seconds =       0.06 minutes
	total time  =         16 seconds =       0.27 minutes

    Psi4 stopped on: Wednesday, 10 February 2021 03:53PM
    Psi4 wall time for execution: 0:00:15.61

*** Psi4 exiting successfully. Buy a developer a beer!
