13568                                                                   
Freq      RMP2-FC                                                     6-31G(d)            
Number of atoms                            I               16
Info1-9                                    I   N=           9
          28          26        1002           0           0         100
           6           2           1
Charge                                     I                0
Multiplicity                               I                1
Number of electrons                        I               46
Number of alpha electrons                  I               23
Number of beta electrons                   I               23
Number of basis functions                  I              110
Number of independent functions            I              110
Number of point charges in /Mol/           I                0
Number of translation vectors              I                0
Atomic numbers                             I   N=          16
           6           6           6           6           6           6
           1           1           1           1           1           1
           1           1           1           1
Nuclear charges                            R   N=          16
  6.00000000E+00  6.00000000E+00  6.00000000E+00  6.00000000E+00  6.00000000E+00
  6.00000000E+00  1.00000000E+00  1.00000000E+00  1.00000000E+00  1.00000000E+00
  1.00000000E+00  1.00000000E+00  1.00000000E+00  1.00000000E+00  1.00000000E+00
  1.00000000E+00
Current cartesian coordinates              R   N=          48
 -3.92529954E+00 -1.04113726E+00  1.30206939E-05  3.92529750E+00 -1.04113740E+00
 -1.31606640E-05 -4.97693036E+00  1.65711442E+00 -1.06267629E-05  4.97693350E+00
  1.65711215E+00  1.06156095E-05 -1.15615928E+00 -1.09492335E+00  5.01488907E-06
  1.15615719E+00 -1.09491943E+00 -4.76219162E-06 -4.63278600E+00 -2.06377040E+00
  1.65769065E+00 -4.63279558E+00 -2.06380250E+00 -1.65764062E+00  4.63279170E+00
 -2.06380419E+00  1.65764032E+00  4.63278158E+00 -2.06377178E+00 -1.65769105E+00
 -7.04418711E+00  1.63133062E+00 -5.66945922E-06 -4.33529647E+00  2.68494430E+00
 -1.67171000E+00 -4.33528891E+00  2.68497601E+00  1.67166632E+00  4.33529341E+00
  2.68497581E+00 -1.67166561E+00  4.33530305E+00  2.68494312E+00  1.67171067E+00
  7.04419019E+00  1.63132418E+00  4.37500553E-06
Force Field                                I                0
Int Atom Types                             I   N=          16
           0           0           0           0           0           0
           0           0           0           0           0           0
           0           0           0           0
MM charges                                 R   N=          16
  0.00000000E+00  0.00000000E+00  0.00000000E+00  0.00000000E+00  0.00000000E+00
  0.00000000E+00  0.00000000E+00  0.00000000E+00  0.00000000E+00  0.00000000E+00
  0.00000000E+00  0.00000000E+00  0.00000000E+00  0.00000000E+00  0.00000000E+00
  0.00000000E+00
Integer atomic weights                     I   N=          16
          12          12          12          12          12          12
           1           1           1           1           1           1
           1           1           1           1
Real atomic weights                        R   N=          16
  1.20000000E+01  1.20000000E+01  1.20000000E+01  1.20000000E+01  1.20000000E+01
  1.20000000E+01  1.00782504E+00  1.00782504E+00  1.00782504E+00  1.00782504E+00
  1.00782504E+00  1.00782504E+00  1.00782504E+00  1.00782504E+00  1.00782504E+00
  1.00782504E+00
Atom fragment info                         I   N=          16
           0           0           0           0           0           0
           0           0           0           0           0           0
           0           0           0           0
Atom residue num                           I   N=          16
           0           0           0           0           0           0
           0           0           0           0           0           0
           0           0           0           0
Nuclear spins                              I   N=          16
           0           0           0           0           0           0
           1           1           1           1           1           1
           1           1           1           1
Nuclear ZEff                               R   N=          16
 -3.60000000E+00 -3.60000000E+00 -3.60000000E+00 -3.60000000E+00 -3.60000000E+00
 -3.60000000E+00 -1.00000000E+00 -1.00000000E+00 -1.00000000E+00 -1.00000000E+00
 -1.00000000E+00 -1.00000000E+00 -1.00000000E+00 -1.00000000E+00 -1.00000000E+00
 -1.00000000E+00
Nuclear QMom                               R   N=          16
  0.00000000E+00  0.00000000E+00  0.00000000E+00  0.00000000E+00  0.00000000E+00
  0.00000000E+00  0.00000000E+00  0.00000000E+00  0.00000000E+00  0.00000000E+00
  0.00000000E+00  0.00000000E+00  0.00000000E+00  0.00000000E+00  0.00000000E+00
  0.00000000E+00
Nuclear GFac                               R   N=          16
  0.00000000E+00  0.00000000E+00  0.00000000E+00  0.00000000E+00  0.00000000E+00
  0.00000000E+00  2.79284600E+00  2.79284600E+00  2.79284600E+00  2.79284600E+00
  2.79284600E+00  2.79284600E+00  2.79284600E+00  2.79284600E+00  2.79284600E+00
  2.79284600E+00
MicOpt                                     I   N=          16
          -1          -1          -1          -1          -1          -1
          -1          -1          -1          -1          -1          -1
          -1          -1          -1          -1
Number of contracted shells                I               44
Number of primitive shells                 I              106
Pure/Cartesian d shells                    I                1
Pure/Cartesian f shells                    I                0
Highest angular momentum                   I                2
Largest degree of contraction              I                6
Shell types                                I   N=          44
           0          -1          -1           2           0          -1
          -1           2           0          -1          -1           2
           0          -1          -1           2           0          -1
          -1           2           0          -1          -1           2
           0           0           0           0           0           0
           0           0           0           0           0           0
           0           0           0           0           0           0
           0           0
Number of primitives per shell             I   N=          44
           6           3           1           1           6           3
           1           1           6           3           1           1
           6           3           1           1           6           3
           1           1           6           3           1           1
           3           1           3           1           3           1
           3           1           3           1           3           1
           3           1           3           1           3           1
           3           1
Shell to atom map                          I   N=          44
           1           1           1           1           2           2
           2           2           3           3           3           3
           4           4           4           4           5           5
           5           5           6           6           6           6
           7           7           8           8           9           9
          10          10          11          11          12          12
          13          13          14          14          15          15
          16          16
Primitive exponents                        R   N=         106
  3.04752488E+03  4.57369518E+02  1.03948685E+02  2.92101553E+01  9.28666296E+00
  3.16392696E+00  7.86827235E+00  1.88128854E+00  5.44249258E-01  1.68714478E-01
  8.00000000E-01  3.04752488E+03  4.57369518E+02  1.03948685E+02  2.92101553E+01
  9.28666296E+00  3.16392696E+00  7.86827235E+00  1.88128854E+00  5.44249258E-01
  1.68714478E-01  8.00000000E-01  3.04752488E+03  4.57369518E+02  1.03948685E+02
  2.92101553E+01  9.28666296E+00  3.16392696E+00  7.86827235E+00  1.88128854E+00
  5.44249258E-01  1.68714478E-01  8.00000000E-01  3.04752488E+03  4.57369518E+02
  1.03948685E+02  2.92101553E+01  9.28666296E+00  3.16392696E+00  7.86827235E+00
  1.88128854E+00  5.44249258E-01  1.68714478E-01  8.00000000E-01  3.04752488E+03
  4.57369518E+02  1.03948685E+02  2.92101553E+01  9.28666296E+00  3.16392696E+00
  7.86827235E+00  1.88128854E+00  5.44249258E-01  1.68714478E-01  8.00000000E-01
  3.04752488E+03  4.57369518E+02  1.03948685E+02  2.92101553E+01  9.28666296E+00
  3.16392696E+00  7.86827235E+00  1.88128854E+00  5.44249258E-01  1.68714478E-01
  8.00000000E-01  1.87311370E+01  2.82539436E+00  6.40121692E-01  1.61277759E-01
  1.87311370E+01  2.82539436E+00  6.40121692E-01  1.61277759E-01  1.87311370E+01
  2.82539436E+00  6.40121692E-01  1.61277759E-01  1.87311370E+01  2.82539436E+00
  6.40121692E-01  1.61277759E-01  1.87311370E+01  2.82539436E+00  6.40121692E-01
  1.61277759E-01  1.87311370E+01  2.82539436E+00  6.40121692E-01  1.61277759E-01
  1.87311370E+01  2.82539436E+00  6.40121692E-01  1.61277759E-01  1.87311370E+01
  2.82539436E+00  6.40121692E-01  1.61277759E-01  1.87311370E+01  2.82539436E+00
  6.40121692E-01  1.61277759E-01  1.87311370E+01  2.82539436E+00  6.40121692E-01
  1.61277759E-01
Contraction coefficients                   R   N=         106
  1.83473713E-03  1.40373228E-02  6.88426223E-02  2.32184443E-01  4.67941348E-01
  3.62311985E-01 -1.19332420E-01 -1.60854152E-01  1.14345644E+00  1.00000000E+00
  1.00000000E+00  1.83473713E-03  1.40373228E-02  6.88426223E-02  2.32184443E-01
  4.67941348E-01  3.62311985E-01 -1.19332420E-01 -1.60854152E-01  1.14345644E+00
  1.00000000E+00  1.00000000E+00  1.83473713E-03  1.40373228E-02  6.88426223E-02
  2.32184443E-01  4.67941348E-01  3.62311985E-01 -1.19332420E-01 -1.60854152E-01
  1.14345644E+00  1.00000000E+00  1.00000000E+00  1.83473713E-03  1.40373228E-02
  6.88426223E-02  2.32184443E-01  4.67941348E-01  3.62311985E-01 -1.19332420E-01
 -1.60854152E-01  1.14345644E+00  1.00000000E+00  1.00000000E+00  1.83473713E-03
  1.40373228E-02  6.88426223E-02  2.32184443E-01  4.67941348E-01  3.62311985E-01
 -1.19332420E-01 -1.60854152E-01  1.14345644E+00  1.00000000E+00  1.00000000E+00
  1.83473713E-03  1.40373228E-02  6.88426223E-02  2.32184443E-01  4.67941348E-01
  3.62311985E-01 -1.19332420E-01 -1.60854152E-01  1.14345644E+00  1.00000000E+00
  1.00000000E+00  3.34946043E-02  2.34726953E-01  8.13757326E-01  1.00000000E+00
  3.34946043E-02  2.34726953E-01  8.13757326E-01  1.00000000E+00  3.34946043E-02
  2.34726953E-01  8.13757326E-01  1.00000000E+00  3.34946043E-02  2.34726953E-01
  8.13757326E-01  1.00000000E+00  3.34946043E-02  2.34726953E-01  8.13757326E-01
  1.00000000E+00  3.34946043E-02  2.34726953E-01  8.13757326E-01  1.00000000E+00
  3.34946043E-02  2.34726953E-01  8.13757326E-01  1.00000000E+00  3.34946043E-02
  2.34726953E-01  8.13757326E-01  1.00000000E+00  3.34946043E-02  2.34726953E-01
  8.13757326E-01  1.00000000E+00  3.34946043E-02  2.34726953E-01  8.13757326E-01
  1.00000000E+00
P(S=P) Contraction coefficients            R   N=         106
  0.00000000E+00  0.00000000E+00  0.00000000E+00  0.00000000E+00  0.00000000E+00
  0.00000000E+00  6.89990666E-02  3.16423961E-01  7.44308291E-01  1.00000000E+00
  0.00000000E+00  0.00000000E+00  0.00000000E+00  0.00000000E+00  0.00000000E+00
  0.00000000E+00  0.00000000E+00  6.89990666E-02  3.16423961E-01  7.44308291E-01
  1.00000000E+00  0.00000000E+00  0.00000000E+00  0.00000000E+00  0.00000000E+00
  0.00000000E+00  0.00000000E+00  0.00000000E+00  6.89990666E-02  3.16423961E-01
  7.44308291E-01  1.00000000E+00  0.00000000E+00  0.00000000E+00  0.00000000E+00
  0.00000000E+00  0.00000000E+00  0.00000000E+00  0.00000000E+00  6.89990666E-02
  3.16423961E-01  7.44308291E-01  1.00000000E+00  0.00000000E+00  0.00000000E+00
  0.00000000E+00  0.00000000E+00  0.00000000E+00  0.00000000E+00  0.00000000E+00
  6.89990666E-02  3.16423961E-01  7.44308291E-01  1.00000000E+00  0.00000000E+00
  0.00000000E+00  0.00000000E+00  0.00000000E+00  0.00000000E+00  0.00000000E+00
  0.00000000E+00  6.89990666E-02  3.16423961E-01  7.44308291E-01  1.00000000E+00
  0.00000000E+00  0.00000000E+00  0.00000000E+00  0.00000000E+00  0.00000000E+00
  0.00000000E+00  0.00000000E+00  0.00000000E+00  0.00000000E+00  0.00000000E+00
  0.00000000E+00  0.00000000E+00  0.00000000E+00  0.00000000E+00  0.00000000E+00
  0.00000000E+00  0.00000000E+00  0.00000000E+00  0.00000000E+00  0.00000000E+00
  0.00000000E+00  0.00000000E+00  0.00000000E+00  0.00000000E+00  0.00000000E+00
  0.00000000E+00  0.00000000E+00  0.00000000E+00  0.00000000E+00  0.00000000E+00
  0.00000000E+00  0.00000000E+00  0.00000000E+00  0.00000000E+00  0.00000000E+00
  0.00000000E+00  0.00000000E+00  0.00000000E+00  0.00000000E+00  0.00000000E+00
  0.00000000E+00
Coordinates of each shell                  R   N=         132
 -3.92529954E+00 -1.04113726E+00  1.30206939E-05 -3.92529954E+00 -1.04113726E+00
  1.30206939E-05 -3.92529954E+00 -1.04113726E+00  1.30206939E-05 -3.92529954E+00
 -1.04113726E+00  1.30206939E-05  3.92529750E+00 -1.04113740E+00 -1.31606640E-05
  3.92529750E+00 -1.04113740E+00 -1.31606640E-05  3.92529750E+00 -1.04113740E+00
 -1.31606640E-05  3.92529750E+00 -1.04113740E+00 -1.31606640E-05 -4.97693036E+00
  1.65711442E+00 -1.06267629E-05 -4.97693036E+00  1.65711442E+00 -1.06267629E-05
 -4.97693036E+00  1.65711442E+00 -1.06267629E-05 -4.97693036E+00  1.65711442E+00
 -1.06267629E-05  4.97693350E+00  1.65711215E+00  1.06156095E-05  4.97693350E+00
  1.65711215E+00  1.06156095E-05  4.97693350E+00  1.65711215E+00  1.06156095E-05
  4.97693350E+00  1.65711215E+00  1.06156095E-05 -1.15615928E+00 -1.09492335E+00
  5.01488907E-06 -1.15615928E+00 -1.09492335E+00  5.01488907E-06 -1.15615928E+00
 -1.09492335E+00  5.01488907E-06 -1.15615928E+00 -1.09492335E+00  5.01488907E-06
  1.15615719E+00 -1.09491943E+00 -4.76219162E-06  1.15615719E+00 -1.09491943E+00
 -4.76219162E-06  1.15615719E+00 -1.09491943E+00 -4.76219162E-06  1.15615719E+00
 -1.09491943E+00 -4.76219162E-06 -4.63278600E+00 -2.06377040E+00  1.65769065E+00
 -4.63278600E+00 -2.06377040E+00  1.65769065E+00 -4.63279558E+00 -2.06380250E+00
 -1.65764062E+00 -4.63279558E+00 -2.06380250E+00 -1.65764062E+00  4.63279170E+00
 -2.06380419E+00  1.65764032E+00  4.63279170E+00 -2.06380419E+00  1.65764032E+00
  4.63278158E+00 -2.06377178E+00 -1.65769105E+00  4.63278158E+00 -2.06377178E+00
 -1.65769105E+00 -7.04418711E+00  1.63133062E+00 -5.66945922E-06 -7.04418711E+00
  1.63133062E+00 -5.66945922E-06 -4.33529647E+00  2.68494430E+00 -1.67171000E+00
 -4.33529647E+00  2.68494430E+00 -1.67171000E+00 -4.33528891E+00  2.68497601E+00
  1.67166632E+00 -4.33528891E+00  2.68497601E+00  1.67166632E+00  4.33529341E+00
  2.68497581E+00 -1.67166561E+00  4.33529341E+00  2.68497581E+00 -1.67166561E+00
  4.33530305E+00  2.68494312E+00  1.67171067E+00  4.33530305E+00  2.68494312E+00
  1.67171067E+00  7.04419019E+00  1.63132418E+00  4.37500553E-06  7.04419019E+00
  1.63132418E+00  4.37500553E-06
Constraint Structure                       R   N=          48
 -3.92529954E+00 -1.04113726E+00  1.30206939E-05  3.92529750E+00 -1.04113740E+00
 -1.31606640E-05 -4.97693036E+00  1.65711442E+00 -1.06267629E-05  4.97693350E+00
  1.65711215E+00  1.06156095E-05 -1.15615928E+00 -1.09492335E+00  5.01488907E-06
  1.15615719E+00 -1.09491943E+00 -4.76219162E-06 -4.63278600E+00 -2.06377040E+00
  1.65769065E+00 -4.63279558E+00 -2.06380250E+00 -1.65764062E+00  4.63279170E+00
 -2.06380419E+00  1.65764032E+00  4.63278158E+00 -2.06377178E+00 -1.65769105E+00
 -7.04418711E+00  1.63133062E+00 -5.66945922E-06 -4.33529647E+00  2.68494430E+00
 -1.67171000E+00 -4.33528891E+00  2.68497601E+00  1.67166632E+00  4.33529341E+00
  2.68497581E+00 -1.67166561E+00  4.33530305E+00  2.68494312E+00  1.67171067E+00
  7.04419019E+00  1.63132418E+00  4.37500553E-06
Num ILSW                                   I              100
ILSW                                       I   N=         100
           0           1           0           0           2           0
           0           0           0           0           0          -1
           0           0           0           0           0           0
           0           0           0           0           1           0
           1           0           0           0           0           0
           0           0      100000           0          -1           0
           0           0           0           0           0           0
           0           0           0           1           1           0
           0           0           1           0           0           0
           0           0           4          40           0           0
           0           0           0           0           0           0
           0           0           0           0           0           0
           0           0           0           0           0           0
           0           0           0           0           0           0
           0           0           0           0           0           0
           0           0           0           0           0           0
           0           0           0           0
Num RLSW                                   I               40
RLSW                                       R   N=          40
  1.00000000E+00  1.00000000E+00  1.00000000E+00  1.00000000E+00  1.00000000E+00
  0.00000000E+00  0.00000000E+00  1.00000000E+00  0.00000000E+00  0.00000000E+00
  0.00000000E+00  0.00000000E+00  1.00000000E+00  0.00000000E+00  0.00000000E+00
  0.00000000E+00  0.00000000E+00  1.00000000E+00  0.00000000E+00  0.00000000E+00
  0.00000000E+00  0.00000000E+00  1.00000000E+00  0.00000000E+00  0.00000000E+00
  0.00000000E+00  0.00000000E+00  1.00000000E+00  0.00000000E+00  0.00000000E+00
  0.00000000E+00  0.00000000E+00  0.00000000E+00  0.00000000E+00  0.00000000E+00
  0.00000000E+00  0.00000000E+00  0.00000000E+00  1.00000000E+00  1.00000000E+00
MxBond                                     I                4
NBond                                      I   N=          16
           4           4           4           4           2           2
           1           1           1           1           1           1
           1           1           1           1
IBond                                      I   N=          64
           3           5           7           8           4           6
           9          10           1          11          12          13
           2          14          15          16           1           6
           0           0           2           5           0           0
           1           0           0           0           1           0
           0           0           2           0           0           0
           2           0           0           0           3           0
           0           0           3           0           0           0
           3           0           0           0           4           0
           0           0           4           0           0           0
           4           0           0           0
RBond                                      R   N=          64
  1.00000000E+00  1.00000000E+00  1.00000000E+00  1.00000000E+00  1.00000000E+00
  1.00000000E+00  1.00000000E+00  1.00000000E+00  1.00000000E+00  1.00000000E+00
  1.00000000E+00  1.00000000E+00  1.00000000E+00  1.00000000E+00  1.00000000E+00
  1.00000000E+00  1.00000000E+00  3.00000000E+00  0.00000000E+00  0.00000000E+00
  1.00000000E+00  3.00000000E+00  0.00000000E+00  0.00000000E+00  1.00000000E+00
  0.00000000E+00  0.00000000E+00  0.00000000E+00  1.00000000E+00  0.00000000E+00
  0.00000000E+00  0.00000000E+00  1.00000000E+00  0.00000000E+00  0.00000000E+00
  0.00000000E+00  1.00000000E+00  0.00000000E+00  0.00000000E+00  0.00000000E+00
  1.00000000E+00  0.00000000E+00  0.00000000E+00  0.00000000E+00  1.00000000E+00
  0.00000000E+00  0.00000000E+00  0.00000000E+00  1.00000000E+00  0.00000000E+00
  0.00000000E+00  0.00000000E+00  1.00000000E+00  0.00000000E+00  0.00000000E+00
  0.00000000E+00  1.00000000E+00  0.00000000E+00  0.00000000E+00  0.00000000E+00
  1.00000000E+00  0.00000000E+00  0.00000000E+00  0.00000000E+00
Virial Ratio                               R      2.001743625737436E+00
SCF Energy                                 R     -2.329754213358043E+02
MP2 Energy                                 R     -2.337472252636052E+02
Total Energy                               R     -2.337472252636052E+02
Post-SCF wavefunction norm                 R      1.596892203404875E+00
RMS Force                                  R      2.791586802922648E-08
RMS Density                                R      3.657591677821065E-09
External E-field                           R   N=          35
  0.00000000E+00  0.00000000E+00  0.00000000E+00  0.00000000E+00  0.00000000E+00
  0.00000000E+00  0.00000000E+00  0.00000000E+00  0.00000000E+00  0.00000000E+00
  0.00000000E+00  0.00000000E+00  0.00000000E+00  0.00000000E+00  0.00000000E+00
  0.00000000E+00  0.00000000E+00  0.00000000E+00  0.00000000E+00  0.00000000E+00
  0.00000000E+00  0.00000000E+00  0.00000000E+00  0.00000000E+00  0.00000000E+00
  0.00000000E+00  0.00000000E+00  0.00000000E+00  0.00000000E+00  0.00000000E+00
  0.00000000E+00  0.00000000E+00  0.00000000E+00  0.00000000E+00  0.00000000E+00
IOpCl                                      I                0
IROHF                                      I                0
Alpha Orbital Energies                     R   N=         110
 -1.12455657E+01 -1.12455655E+01 -1.12203383E+01 -1.12203382E+01 -1.12181464E+01
 -1.12148993E+01 -1.07697332E+00 -1.04996252E+00 -9.62960105E-01 -8.76410581E-01
 -8.42038907E-01 -6.61279616E-01 -6.23499489E-01 -6.22804187E-01 -6.14164110E-01
 -5.42656935E-01 -5.40967222E-01 -5.15938860E-01 -5.11920379E-01 -5.08816335E-01
 -5.00515820E-01 -3.50388181E-01 -3.49383344E-01  2.06286687E-01  2.22053394E-01
  2.45143815E-01  2.74179613E-01  2.98329315E-01  3.03329721E-01  3.03899080E-01
  3.15170785E-01  3.23399245E-01  3.33285055E-01  3.41621327E-01  3.95035950E-01
  3.96814720E-01  3.97888055E-01  4.54096984E-01  4.67571419E-01  6.14927028E-01
  6.45310777E-01  7.35508468E-01  7.36790748E-01  7.53243638E-01  7.58855724E-01
  7.59483387E-01  8.05400002E-01  8.42263843E-01  8.91169399E-01  9.29603155E-01
  9.42278689E-01  9.92891835E-01  1.00548068E+00  1.04321272E+00  1.06079739E+00
  1.11154390E+00  1.12876119E+00  1.14344640E+00  1.15404407E+00  1.16206461E+00
  1.17473213E+00  1.17491793E+00  1.18561127E+00  1.20339143E+00  1.22832544E+00
  1.24532665E+00  1.24868531E+00  1.26628181E+00  1.40744401E+00  1.51342461E+00
  1.56285349E+00  1.62712343E+00  1.67294066E+00  1.79889300E+00  1.83634211E+00
  1.83983615E+00  1.85599093E+00  1.88794512E+00  1.93726951E+00  1.95923665E+00
  2.01485964E+00  2.15482854E+00  2.17481142E+00  2.22763281E+00  2.25186472E+00
  2.25431789E+00  2.27184005E+00  2.35306754E+00  2.37876783E+00  2.38809760E+00
  2.46725937E+00  2.59185552E+00  2.60570715E+00  2.65459165E+00  2.66192533E+00
  2.67883722E+00  2.68603970E+00  2.71509163E+00  2.88330110E+00  2.93268945E+00
  3.14567941E+00  3.20865684E+00  3.30981951E+00  3.87938895E+00  4.54456688E+00
  4.58723187E+00  4.68746680E+00  4.76180913E+00  4.99504697E+00  5.25735274E+00
Alpha MO coefficients                      R   N=       12100
  9.26060826E-01  2.66258500E-02  4.82443413E-04  5.79691272E-05 -2.06123189E-09
 -1.78934174E-02 -1.50068543E-03 -7.75004127E-04  1.36572780E-08 -1.31173798E-03
 -1.49523272E-03 -1.40376124E-03 -1.71746090E-06 -3.85831781E-10  1.03840367E-09
 -3.65964902E-01 -1.04664163E-02  2.52364776E-04 -2.50363229E-05 -9.58534708E-10
  6.53010044E-03 -3.29174141E-04  3.48023988E-04  3.79748717E-09  4.36785041E-04
  5.85947538E-04  5.48125223E-04 -5.89444805E-06  3.92901559E-10  4.87793585E-10
  1.05292157E-02  3.45248914E-04  9.97629732E-05 -9.13081088E-05  6.56048528E-10
  3.84230785E-03  5.93601076E-04 -1.67615538E-03  1.41270510E-08 -1.62804250E-04
 -4.10635116E-04 -8.12012202E-05  8.73454320E-05 -6.20535226E-10  3.52826370E-09
 -4.16388147E-03 -1.37378212E-04  4.18598453E-05  3.19684511E-05  1.64307920E-10
 -1.50462477E-03  2.13041627E-04  6.74862849E-04  6.37119769E-09  5.83474715E-05
  1.63729574E-04  3.38629825E-05  3.73455786E-05  2.77270711E-10  1.36004933E-09
  1.12983260E-02  3.69098647E-04 -8.72913201E-05  1.30486027E-05  6.05211632E-10
  4.52548430E-03 -3.50524332E-03  2.45807036E-04  8.86092916E-09 -1.01680890E-03
 -1.79843096E-04 -1.39890528E-04 -7.67249943E-06  3.71556221E-09  4.26284491E-10
 -4.20034584E-03  4.59361003E-05 -2.81424311E-04 -1.48950173E-06  1.43409631E-09
 -7.39721947E-04 -8.86282386E-04 -1.69745542E-04  4.13428146E-09  6.34191013E-04
  8.13030982E-05  6.39204961E-05  4.37365584E-06 -2.92898714E-09  9.02987811E-11
  2.87055753E-04  2.46038384E-03  2.87056139E-04  2.46038493E-03 -1.01374318E-04
 -9.65930795E-04 -1.01374413E-04 -9.65931029E-04 -1.24417013E-04 -2.22474951E-04
 -1.51134985E-04  7.18232216E-05 -1.51135016E-04  7.18241838E-05  5.63914453E-05
 -3.51180912E-05  5.63913580E-05 -3.51181965E-05  5.34979299E-05  7.83585053E-05
  3.65960880E-01  1.05983357E-02  1.06099515E-04  1.99935827E-05 -6.49885209E-10
 -7.81250507E-03 -9.54582591E-04 -2.49057999E-04  7.36387492E-09 -6.30167766E-04
 -5.97662199E-04 -5.63808441E-04  6.46820821E-06  1.45256363E-10  3.16355114E-10
  9.26059236E-01  2.66779840E-02 -4.24641017E-04  5.59772192E-05  2.02153774E-09
 -1.84002105E-02  1.74783924E-03 -7.35894553E-04 -1.52343017E-08 -1.38816008E-03
 -1.49986221E-03 -1.40995934E-03 -3.16825674E-06 -1.66686217E-10 -9.70852806E-10
  4.15699579E-03  1.35146869E-04  3.60880542E-05 -4.17212583E-05  3.49352201E-10
  1.53730583E-03  2.64094049E-04 -6.45294066E-04  4.85206189E-09 -7.25447856E-05
 -1.60284064E-04 -2.96592460E-05  3.06428197E-05 -1.94842791E-10  1.44656482E-09
  1.05265581E-02  3.44368936E-04 -9.74821346E-05 -9.51619093E-05 -6.50080257E-10
  3.85522118E-03 -6.13781002E-04 -1.66446790E-03 -1.41111000E-08 -1.68415244E-04
 -4.09273561E-04 -7.95400405E-05 -8.46971919E-05 -5.68054101E-10 -3.59870522E-09
  4.82735739E-03  4.08650928E-04  3.03831274E-04  1.01837102E-05 -1.39006093E-09
  3.22523577E-03 -2.06880486E-03 -2.33735401E-06  3.16210373E-09 -8.34506331E-05
 -5.70511645E-05 -4.34465190E-05 -1.31759838E-05 -3.84016088E-10  2.80014481E-10
  1.15460497E-02  5.48742376E-04 -1.43991723E-04  1.64856861E-05  5.57297998E-10
  5.50770106E-03  3.97257407E-03  1.77793985E-04 -9.12891591E-09 -7.99165472E-04
 -1.70258869E-04 -1.31799201E-04  1.46083441E-05  2.53083799E-09 -5.11569882E-10
  1.29970260E-04  9.81029171E-04  1.29970683E-04  9.81030319E-04  2.98357178E-04
  2.46635236E-03  2.98356621E-04  2.46635085E-03 -4.32341082E-05 -1.01016512E-04
 -6.42947116E-05  1.91556546E-05 -6.42946209E-05  1.91563804E-05 -1.54258306E-04
  6.55159384E-05 -1.54258348E-04  6.55152403E-05 -1.20360747E-04 -2.31428406E-04
 -9.06115686E-03 -5.11155910E-05 -6.27765901E-05  3.17455487E-05  2.09675356E-10
  1.18418287E-03 -1.21852825E-03  1.09684228E-03 -1.04618564E-08 -1.42033382E-04
 -3.29885356E-04 -2.96799166E-05  1.13266782E-04 -8.91895190E-10  3.20859136E-09
  7.17909322E-03  3.81978932E-05 -5.42773200E-05 -2.86125396E-05  2.56790288E-10
 -8.00494204E-04 -1.00527562E-03 -8.36252731E-04 -8.94658053E-09  1.10583791E-04
  2.62609393E-04  2.17493760E-05  8.81091946E-05  7.37172123E-10  2.63231239E-09
  7.80621765E-01  2.22375533E-02  6.98749761E-05 -1.26488050E-04  1.03223681E-09
 -1.15195615E-02 -3.37115212E-04  4.52045918E-04 -2.69419802E-09 -1.41747925E-03
 -1.45132784E-03 -1.40335868E-03  1.07535642E-05  2.74623217E-11  4.03088650E-10
 -6.18075897E-01 -1.76091679E-02  5.92322385E-05  1.01943141E-04  7.66259114E-10
  9.10894960E-03 -2.83257743E-04 -3.44864397E-04 -1.36309833E-09  1.12135408E-03
  1.14614602E-03  1.10951258E-03  8.46196726E-06 -4.91230445E-11  2.73212647E-10
 -1.62763347E-03 -1.98482693E-04  7.32543516E-05 -5.76620708E-05  7.19565640E-11
 -1.70350769E-03 -2.78410936E-03  3.39099836E-04  1.03060804E-08 -3.59639208E-05
  2.39727013E-05 -1.09735242E-04 -2.69471192E-05  1.97377701E-10 -1.28668544E-09
  9.71875009E-04  1.43965286E-04  5.14809557E-05  5.22143515E-05 -6.50288660E-12
  1.93434085E-03 -2.59735007E-03 -3.30742381E-04  1.07372951E-08  3.96727386E-05
 -1.61887474E-05  9.34974014E-05 -1.91262888E-05 -1.79824024E-10 -1.00589927E-09
 -7.80552348E-05  1.95267473E-06 -7.80558912E-05  1.95082678E-06  6.14032879E-05
  1.97112427E-06  6.14025352E-05  1.96899397E-06  8.49452284E-05  1.83663479E-03
  1.12266776E-04  2.01587547E-03  1.12266776E-04  2.01587460E-03 -8.93385841E-05
 -1.60290846E-03 -8.93386025E-05 -1.60290971E-03 -6.55254877E-05 -1.44174569E-03
 -7.15392820E-03 -5.03936851E-05 -2.97661445E-05  9.97215039E-06 -2.57186833E-10
  1.53549394E-03 -7.88276107E-04  1.00881957E-03 -4.69027873E-09 -1.20631940E-04
 -2.55020396E-04 -3.11317107E-05  9.65377952E-05 -5.12546824E-10  2.17166911E-09
 -9.04131026E-03 -6.07727476E-05  4.33708283E-05  1.69865774E-05  2.19299909E-10
  1.76610016E-03  1.04673031E-03  1.23347004E-03  6.79614139E-09 -1.49989999E-04
 -3.23875814E-04 -3.71082664E-05 -1.19940906E-04 -6.88678749E-10 -2.85484051E-09
  6.18066955E-01  1.75978995E-02  3.82884455E-05 -9.23275142E-05  9.33754737E-10
 -9.17280808E-03 -1.95675344E-04  4.14826319E-04 -5.12985143E-09 -1.12653203E-03
 -1.16208887E-03 -1.11823504E-03  8.74328877E-06 -1.35128368E-10  5.53414856E-10
  7.80614685E-01  2.22286317E-02 -5.32926199E-05 -1.18874289E-04 -1.11663796E-09
 -1.15701204E-02  2.67771283E-04  5.07436848E-04  5.53621554E-09 -1.42157938E-03
 -1.46395038E-03 -1.41026477E-03 -1.09762816E-05 -1.29108288E-10 -6.43933927E-10