
    -----------------------------------------------------------------------
          Psi4: An Open-Source Ab Initio Electronic Structure Package
                               Psi4 1.4a3.dev225 

                         Git: Rev {master} 7105e37 


    D. G. A. Smith, L. A. Burns, A. C. Simmonett, R. M. Parrish,
    M. C. Schieber, R. Galvelis, P. Kraus, H. Kruse, R. Di Remigio,
    A. Alenaizan, A. M. James, S. Lehtola, J. P. Misiewicz, M. Scheurer,
    R. A. Shaw, J. B. Schriber, Y. Xie, Z. L. Glick, D. A. Sirianni,
    J. S. O'Brien, J. M. Waldrop, A. Kumar, E. G. Hohenstein,
    B. P. Pritchard, B. R. Brooks, H. F. Schaefer III, A. Yu. Sokolov,
    K. Patkowski, A. E. DePrince III, U. Bozkaya, R. A. King,
    F. A. Evangelista, J. M. Turney, T. D. Crawford, C. D. Sherrill,
    J. Chem. Phys. 152(18) 184108 (2020). https://doi.org/10.1063/5.0006002

                            Additional Code Authors
    E. T. Seidl, C. L. Janssen, E. F. Valeev, M. L. Leininger,
    J. F. Gonthier, R. M. Richard, H. R. McAlexander, M. Saitow, X. Wang,
    P. Verma, and M. H. Lechner

             Previous Authors, Complete List of Code Contributors,
                       and Citations for Specific Modules
    https://github.com/psi4/psi4/blob/master/codemeta.json
    https://github.com/psi4/psi4/graphs/contributors
    http://psicode.org/psi4manual/master/introduction.html#citing-psifour

    -----------------------------------------------------------------------


    Psi4 started on: Thursday, 01 April 2021 10:14AM

    Process ID: 157386
    Host:       c451-083.stampede2.tacc.utexas.edu
    PSIDATADIR: /home1/07844/xy3866/miniconda3/envs/p4env/share/psi4
    Memory:     500.0 MiB
    Threads:    8
    
  ==> Input File <==

--------------------------------------------------------------------------
#psi4
#
memory 32 gb

molecule  {
0 1
  O        1.7152690     0.3729450     0.0000090
  N        0.1712200    -1.3621090     0.0000060
  C       -0.5564040     0.9604300     0.0000000
  C        0.4232170    -0.0565940     0.0000060
  C       -1.8793030     0.5348530    -0.0000030
  C       -0.1474190     2.4036860    -0.0000010
  C       -2.1828588    -0.8532042    -0.0000030
  C       -1.1267010    -1.7380260     0.0000010
  C        2.7107190    -0.6607300    -0.0000090
  H       -2.6789950     1.2736560    -0.0000080
  H       -1.0269000     3.0530270    -0.0000180
  H        0.4613570     2.6342930     0.8791020
  H        0.4613860     2.6342840    -0.8790860
  H       -3.2063890    -1.1841980    -0.0000050
  H       -1.3049600    -2.8116020     0.0000010
  H        2.6194040    -1.2894460    -0.8881130
  H        2.6194520    -1.2894310     0.8881110
  H        3.6618180    -0.1291010    -0.0000380
units angstrom
no_reorient  #important for SAPT in psi4, default
symmetry c1  #important for SAPT in psi4, default
}

set PROPERTIES_ORIGIN ["COM"]
properties('MP2/aug-cc-pvtz', properties = ['dipole'])
--------------------------------------------------------------------------

  Memory set to  29.802 GiB by Python driver.
    SCF Algorithm Type (re)set to DF.

*** tstart() called on c451-083.stampede2.tacc.utexas.edu
*** at Thu Apr  1 10:14:29 2021

   => Loading Basis Set <=

    Name: AUG-CC-PVTZ
    Role: ORBITAL
    Keyword: BASIS
    atoms 1     entry O          line   331 file /home1/07844/xy3866/miniconda3/envs/p4env/share/psi4/basis/aug-cc-pvtz.gbs 
    atoms 2     entry N          line   285 file /home1/07844/xy3866/miniconda3/envs/p4env/share/psi4/basis/aug-cc-pvtz.gbs 
    atoms 3-9   entry C          line   239 file /home1/07844/xy3866/miniconda3/envs/p4env/share/psi4/basis/aug-cc-pvtz.gbs 
    atoms 10-18 entry H          line    40 file /home1/07844/xy3866/miniconda3/envs/p4env/share/psi4/basis/aug-cc-pvtz.gbs 


         ---------------------------------------------------------
                                   SCF
               by Justin Turney, Rob Parrish, Andy Simmonett
                          and Daniel G. A. Smith
                              RHF Reference
                        8 Threads,  30517 MiB Core
         ---------------------------------------------------------

  ==> Geometry <==

    Molecular point group: c1
    Full point group: C1

    Geometry (in Angstrom), charge = 0, multiplicity = 1:

       Center              X                  Y                   Z               Mass       
    ------------   -----------------  -----------------  -----------------  -----------------
         O            1.728701111915     0.398210655562     0.000008467368    15.994914619570
         N            0.184652111915    -1.336843344438     0.000005467368    14.003074004430
         C           -0.542971888085     0.985695655562    -0.000000532632    12.000000000000
         C            0.436649111915    -0.031328344438     0.000005467368    12.000000000000
         C           -1.865870888085     0.560118655562    -0.000003532632    12.000000000000
         C           -0.133986888085     2.428951655562    -0.000001532632    12.000000000000
         C           -2.169426688085    -0.827938544438    -0.000003532632    12.000000000000
         C           -1.113268888085    -1.712760344438     0.000000467368    12.000000000000
         C            2.724151111915    -0.635464344438    -0.000009532632    12.000000000000
         H           -2.665562888085     1.298921655562    -0.000008532632     1.007825032230
         H           -1.013467888085     3.078292655562    -0.000018532632     1.007825032230
         H            0.474789111915     2.659558655562     0.879101467368     1.007825032230
         H            0.474818111915     2.659549655562    -0.879086532632     1.007825032230
         H           -3.192956888085    -1.158932344438    -0.000005532632     1.007825032230
         H           -1.291527888085    -2.786336344438     0.000000467368     1.007825032230
         H            2.632836111915    -1.264180344438    -0.888113532632     1.007825032230
         H            2.632884111915    -1.264165344438     0.888110467368     1.007825032230
         H            3.675250111915    -0.103835344438    -0.000038532632     1.007825032230

  Running in c1 symmetry.

  Rotational constants: A =      0.08306  B =      0.05473  C =      0.03340 [cm^-1]
  Rotational constants: A =   2490.11833  B =   1640.74867  C =   1001.39287 [MHz]
  Nuclear repulsion =  435.111170649669930

  Charge       = 0
  Multiplicity = 1
  Electrons    = 66
  Nalpha       = 33
  Nbeta        = 33

  ==> Algorithm <==

  SCF Algorithm Type is DF.
  DIIS enabled.
  MOM disabled.
  Fractional occupation disabled.
  Guess Type is SAD.
  Energy threshold   = 1.00e-10
  Density threshold  = 1.00e-10
  Integral threshold = 1.00e-12

  ==> Primary Basis <==

  Basis Set: AUG-CC-PVTZ
    Blend: AUG-CC-PVTZ
    Number of shells: 207
    Number of basis functions: 621
    Number of Cartesian functions: 720
    Spherical Harmonics?: true
    Max angular momentum: 3

   => Loading Basis Set <=

    Name: (AUG-CC-PVTZ AUX)
    Role: JKFIT
    Keyword: DF_BASIS_SCF
    atoms 1     entry O          line   286 file /home1/07844/xy3866/miniconda3/envs/p4env/share/psi4/basis/aug-cc-pvtz-jkfit.gbs 
    atoms 2     entry N          line   224 file /home1/07844/xy3866/miniconda3/envs/p4env/share/psi4/basis/aug-cc-pvtz-jkfit.gbs 
    atoms 3-9   entry C          line   162 file /home1/07844/xy3866/miniconda3/envs/p4env/share/psi4/basis/aug-cc-pvtz-jkfit.gbs 
    atoms 10-18 entry H          line    70 file /home1/07844/xy3866/miniconda3/envs/p4env/share/psi4/basis/aug-cc-pvtz-jkfit.gbs 

  ==> Integral Setup <==

  DFHelper Memory: AOs need 3.689 GiB; user supplied 22.352 GiB. Using in-core AOs.

  ==> MemDFJK: Density-Fitted J/K Matrices <==

    J tasked:                   Yes
    K tasked:                   Yes
    wK tasked:                   No
    OpenMP threads:               8
    Memory [MiB]:             22888
    Algorithm:                 Core
    Schwarz Cutoff:           1E-12
    Mask sparsity (%):       7.8306
    Fitting Condition:        1E-10

   => Auxiliary Basis Set <=

  Basis Set: (AUG-CC-PVTZ AUX)
    Blend: AUG-CC-PVTZ-JKFIT
    Number of shells: 396
    Number of basis functions: 1350
    Number of Cartesian functions: 1674
    Spherical Harmonics?: true
    Max angular momentum: 4

  Minimum eigenvalue in the overlap matrix is 1.6364514933E-06.
  Reciprocal condition number of the overlap matrix is 8.9012679055E-08.
    Using symmetric orthogonalization.

  ==> Pre-Iterations <==

  SCF Guess: Superposition of Atomic Densities via on-the-fly atomic UHF (no occupation information).

   -------------------------
    Irrep   Nso     Nmo    
   -------------------------
     A        621     621 
   -------------------------
    Total     621     621
   -------------------------

  ==> Iterations <==

                           Total Energy        Delta E     RMS |[F,P]|

   @DF-RHF iter SAD:  -399.00407122162585   -3.99004e+02   0.00000e+00 
   @DF-RHF iter   1:  -399.52614813491442   -5.22077e-01   1.01586e-03 DIIS
   @DF-RHF iter   2:  -399.72978387863071   -2.03636e-01   4.23602e-04 DIIS
   @DF-RHF iter   3:  -399.76244219709071   -3.26583e-02   9.18788e-05 DIIS
   @DF-RHF iter   4:  -399.76520555511195   -2.76336e-03   2.73757e-05 DIIS
   @DF-RHF iter   5:  -399.76538852727828   -1.82972e-04   8.15047e-06 DIIS
   @DF-RHF iter   6:  -399.76541090670236   -2.23794e-05   3.32138e-06 DIIS
   @DF-RHF iter   7:  -399.76541426247383   -3.35577e-06   1.02279e-06 DIIS
   @DF-RHF iter   8:  -399.76541475808716   -4.95613e-07   3.67239e-07 DIIS
   @DF-RHF iter   9:  -399.76541482022265   -6.21355e-08   1.16222e-07 DIIS
   @DF-RHF iter  10:  -399.76541482494173   -4.71908e-09   3.34140e-08 DIIS
   @DF-RHF iter  11:  -399.76541482539199   -4.50257e-10   1.37686e-08 DIIS
   @DF-RHF iter  12:  -399.76541482545741   -6.54268e-11   5.77884e-09 DIIS
   @DF-RHF iter  13:  -399.76541482547805   -2.06342e-11   2.51067e-09 DIIS
   @DF-RHF iter  14:  -399.76541482548510   -7.04858e-12   1.05681e-09 DIIS
   @DF-RHF iter  15:  -399.76541482548595   -8.52651e-13   4.52488e-10 DIIS
   @DF-RHF iter  16:  -399.76541482548680   -8.52651e-13   1.27339e-10 DIIS
   @DF-RHF iter  17:  -399.76541482548640    3.97904e-13   4.25411e-11 DIIS
  Energy and wave function converged.


  ==> Post-Iterations <==

    Orbital Energies [Eh]
    ---------------------

    Doubly Occupied:                                                      

       1A    -20.587540     2A    -15.558260     3A    -11.333076  
       4A    -11.274259     5A    -11.272094     6A    -11.256508  
       7A    -11.242417     8A    -11.230142     9A    -11.224682  
      10A     -1.415905    11A     -1.243979    12A     -1.098215  
      13A     -1.040126    14A     -0.955685    15A     -0.935955  
      16A     -0.835208    17A     -0.825791    18A     -0.719648  
      19A     -0.688050    20A     -0.654046    21A     -0.649877  
      22A     -0.604784    23A     -0.588522    24A     -0.576822  
      25A     -0.561275    26A     -0.547492    27A     -0.529385  
      28A     -0.527146    29A     -0.501075    30A     -0.476507  
      31A     -0.423194    32A     -0.374587    33A     -0.317098  

    Virtual:                                                              

      34A      0.028454    35A      0.032936    36A      0.034097  
      37A      0.045291    38A      0.045785    39A      0.048423  
      40A      0.061740    41A      0.062271    42A      0.066900  
      43A      0.089118    44A      0.090837    45A      0.095394  
      46A      0.101845    47A      0.111716    48A      0.114574  
      49A      0.116897    50A      0.121239    51A      0.124076  
      52A      0.129113    53A      0.130855    54A      0.132372  
      55A      0.134938    56A      0.141076    57A      0.141197  
      58A      0.145661    59A      0.150089    60A      0.154738  
      61A      0.162729    62A      0.167977    63A      0.168654  
      64A      0.180073    65A      0.183113    66A      0.183710  
      67A      0.208646    68A      0.211479    69A      0.218496  
      70A      0.224643    71A      0.232586    72A      0.233456  
      73A      0.252087    74A      0.252948    75A      0.262451  
      76A      0.271606    77A      0.272882    78A      0.279081  
      79A      0.281172    80A      0.284574    81A      0.300039  
      82A      0.301738    83A      0.306262    84A      0.320536  
      85A      0.320582    86A      0.324415    87A      0.326960  
      88A      0.327398    89A      0.338219    90A      0.338841  
      91A      0.340395    92A      0.353513    93A      0.356008  
      94A      0.360134    95A      0.362174    96A      0.364879  
      97A      0.374552    98A      0.380154    99A      0.386078  
     100A      0.397348   101A      0.397851   102A      0.408518  
     103A      0.409664   104A      0.416347   105A      0.420219  
     106A      0.426809   107A      0.431002   108A      0.435512  
     109A      0.438285   110A      0.440442   111A      0.443943  
     112A      0.450665   113A      0.455748   114A      0.455847  
     115A      0.461661   116A      0.467158   117A      0.471909  
     118A      0.477717   119A      0.482555   120A      0.488361  
     121A      0.493295   122A      0.496117   123A      0.497877  
     124A      0.498669   125A      0.504024   126A      0.513827  
     127A      0.518627   128A      0.526113   129A      0.533404  
     130A      0.541596   131A      0.541676   132A      0.546180  
     133A      0.547796   134A      0.550339   135A      0.556099  
     136A      0.561295   137A      0.567822   138A      0.576861  
     139A      0.577516   140A      0.588084   141A      0.588501  
     142A      0.596378   143A      0.606479   144A      0.629960  
     145A      0.633016   146A      0.636587   147A      0.641044  
     148A      0.648710   149A      0.649253   150A      0.653967  
     151A      0.667292   152A      0.683620   153A      0.686198  
     154A      0.700887   155A      0.715013   156A      0.721894  
     157A      0.732371   158A      0.748949   159A      0.754431  
     160A      0.754530   161A      0.763088   162A      0.769459  
     163A      0.792176   164A      0.801139   165A      0.803451  
     166A      0.805834   167A      0.815423   168A      0.827118  
     169A      0.833395   170A      0.835597   171A      0.839861  
     172A      0.840281   173A      0.851806   174A      0.855456  
     175A      0.860765   176A      0.865560   177A      0.875273  
     178A      0.880425   179A      0.882943   180A      0.892501  
     181A      0.896652   182A      0.905360   183A      0.910853  
     184A      0.922240   185A      0.925008   186A      0.930614  
     187A      0.931607   188A      0.943903   189A      0.944470  
     190A      0.951009   191A      0.964115   192A      0.965397  
     193A      0.968797   194A      0.980017   195A      0.980493  
     196A      0.984979   197A      0.990128   198A      1.000323  
     199A      1.005683   200A      1.013724   201A      1.015502  
     202A      1.021867   203A      1.027501   204A      1.040138  
     205A      1.042511   206A      1.045680   207A      1.052503  
     208A      1.055805   209A      1.066351   210A      1.069578  
     211A      1.071400   212A      1.084772   213A      1.089620  
     214A      1.090140   215A      1.099272   216A      1.102158  
     217A      1.107746   218A      1.128191   219A      1.130870  
     220A      1.141804   221A      1.144170   222A      1.150032  
     223A      1.161979   224A      1.165954   225A      1.171203  
     226A      1.180540   227A      1.186406   228A      1.187163  
     229A      1.199666   230A      1.204028   231A      1.207289  
     232A      1.218514   233A      1.222367   234A      1.224499  
     235A      1.233758   236A      1.238371   237A      1.245568  
     238A      1.248643   239A      1.251191   240A      1.257079  
     241A      1.260826   242A      1.277131   243A      1.283802  
     244A      1.297555   245A      1.306598   246A      1.313954  
     247A      1.325631   248A      1.336263   249A      1.337292  
     250A      1.348996   251A      1.358685   252A      1.360387  
     253A      1.382950   254A      1.394862   255A      1.405788  
     256A      1.421326   257A      1.426294   258A      1.436805  
     259A      1.441449   260A      1.448649   261A      1.478732  
     262A      1.486479   263A      1.491817   264A      1.497220  
     265A      1.501786   266A      1.524408   267A      1.545338  
     268A      1.547575   269A      1.554620   270A      1.556469  
     271A      1.567781   272A      1.574962   273A      1.579204  
     274A      1.580688   275A      1.603727   276A      1.617133  
     277A      1.625326   278A      1.630601   279A      1.640758  
     280A      1.640817   281A      1.648454   282A      1.656462  
     283A      1.680212   284A      1.681481   285A      1.685680  
     286A      1.689283   287A      1.702407   288A      1.706840  
     289A      1.713611   290A      1.738518   291A      1.741700  
     292A      1.751805   293A      1.759309   294A      1.768338  
     295A      1.781410   296A      1.781490   297A      1.783392  
     298A      1.797957   299A      1.806186   300A      1.806745  
     301A      1.822901   302A      1.834985   303A      1.843473  
     304A      1.843543   305A      1.866201   306A      1.869059  
     307A      1.872803   308A      1.884187   309A      1.885956  
     310A      1.887847   311A      1.932003   312A      1.942845  
     313A      1.946586   314A      1.947885   315A      1.958492  
     316A      1.959507   317A      1.971102   318A      1.984549  
     319A      1.997018   320A      2.009704   321A      2.022759  
     322A      2.035353   323A      2.041258   324A      2.061203  
     325A      2.066049   326A      2.071085   327A      2.086732  
     328A      2.090731   329A      2.101466   330A      2.125741  
     331A      2.129350   332A      2.133784   333A      2.137341  
     334A      2.159388   335A      2.159510   336A      2.186199  
     337A      2.197892   338A      2.199525   339A      2.202220  
     340A      2.217466   341A      2.227228   342A      2.246499  
     343A      2.248471   344A      2.265299   345A      2.268863  
     346A      2.277062   347A      2.278222   348A      2.289061  
     349A      2.303584   350A      2.305529   351A      2.316310  
     352A      2.345687   353A      2.356767   354A      2.370586  
     355A      2.378540   356A      2.396505   357A      2.400296  
     358A      2.441818   359A      2.442834   360A      2.509497  
     361A      2.511273   362A      2.535085   363A      2.543459  
     364A      2.546417   365A      2.579201   366A      2.592299  
     367A      2.594423   368A      2.640079   369A      2.651705  
     370A      2.684620   371A      2.709839   372A      2.723215  
     373A      2.752987   374A      2.768120   375A      2.769345  
     376A      2.796666   377A      2.830951   378A      2.855778  
     379A      2.855831   380A      2.877211   381A      2.933124  
     382A      2.951052   383A      2.990938   384A      2.996272  
     385A      3.011130   386A      3.061408   387A      3.088174  
     388A      3.088575   389A      3.116075   390A      3.123501  
     391A      3.169327   392A      3.191813   393A      3.229331  
     394A      3.260758   395A      3.276861   396A      3.294491  
     397A      3.317782   398A      3.340853   399A      3.345271  
     400A      3.351904   401A      3.358914   402A      3.386801  
     403A      3.397694   404A      3.415793   405A      3.434110  
     406A      3.443882   407A      3.456083   408A      3.475205  
     409A      3.481465   410A      3.486532   411A      3.497602  
     412A      3.525190   413A      3.539371   414A      3.542522  
     415A      3.559129   416A      3.575315   417A      3.581655  
     418A      3.592753   419A      3.608765   420A      3.624682  
     421A      3.643883   422A      3.646632   423A      3.668092  
     424A      3.675334   425A      3.676437   426A      3.681357  
     427A      3.693624   428A      3.704518   429A      3.709145  
     430A      3.714917   431A      3.755255   432A      3.758117  
     433A      3.763081   434A      3.768695   435A      3.798234  
     436A      3.800725   437A      3.814917   438A      3.819416  
     439A      3.830287   440A      3.839224   441A      3.875194  
     442A      3.878257   443A      3.888163   444A      3.891420  
     445A      3.916620   446A      3.922392   447A      3.937381  
     448A      3.954210   449A      3.954745   450A      3.962031  
     451A      3.962254   452A      3.983232   453A      3.985663  
     454A      3.998948   455A      4.020705   456A      4.023809  
     457A      4.046792   458A      4.061176   459A      4.067060  
     460A      4.090241   461A      4.105326   462A      4.120071  
     463A      4.124524   464A      4.128201   465A      4.137884  
     466A      4.150363   467A      4.153987   468A      4.166982  
     469A      4.181482   470A      4.188600   471A      4.210652  
     472A      4.214344   473A      4.225738   474A      4.244936  
     475A      4.255774   476A      4.267263   477A      4.280495  
     478A      4.292323   479A      4.306739   480A      4.315200  
     481A      4.328292   482A      4.336827   483A      4.346145  
     484A      4.368265   485A      4.380403   486A      4.384639  
     487A      4.395235   488A      4.396121   489A      4.417061  
     490A      4.421235   491A      4.473899   492A      4.486329  
     493A      4.516545   494A      4.536004   495A      4.547363  
     496A      4.557007   497A      4.560289   498A      4.580035  
     499A      4.583177   500A      4.614056   501A      4.616077  
     502A      4.637576   503A      4.667823   504A      4.679936  
     505A      4.700456   506A      4.721603   507A      4.730141  
     508A      4.732366   509A      4.757034   510A      4.791356  
     511A      4.799835   512A      4.809055   513A      4.829754  
     514A      4.830389   515A      4.848901   516A      4.864936  
     517A      4.866833   518A      4.882573   519A      4.907793  
     520A      4.915326   521A      4.939018   522A      4.944770  
     523A      4.962824   524A      4.967482   525A      5.010615  
     526A      5.029942   527A      5.042864   528A      5.044333  
     529A      5.058740   530A      5.075440   531A      5.091884  
     532A      5.103085   533A      5.114951   534A      5.135142  
     535A      5.152881   536A      5.164194   537A      5.186063  
     538A      5.199088   539A      5.213701   540A      5.215355  
     541A      5.222442   542A      5.239126   543A      5.276001  
     544A      5.287954   545A      5.354041   546A      5.355898  
     547A      5.377240   548A      5.401454   549A      5.421210  
     550A      5.453585   551A      5.458870   552A      5.477254  
     553A      5.540587   554A      5.574217   555A      5.587635  
     556A      5.593523   557A      5.618256   558A      5.624354  
     559A      5.626228   560A      5.642566   561A      5.694024  
     562A      5.705952   563A      5.719452   564A      5.750979  
     565A      5.764046   566A      5.811407   567A      5.816365  
     568A      5.856281   569A      5.885768   570A      5.887707  
     571A      5.936268   572A      5.957246   573A      6.030225  
     574A      6.069781   575A      6.085779   576A      6.087068  
     577A      6.119387   578A      6.148544   579A      6.171352  
     580A      6.174776   581A      6.184969   582A      6.240071  
     583A      6.246801   584A      6.323425   585A      6.384943  
     586A      6.387652   587A      6.529561   588A      6.599391  
     589A      6.610326   590A      6.697095   591A      6.712793  
     592A      6.757188   593A      6.769637   594A      6.795960  
     595A      6.836369   596A      6.863851   597A      6.954930  
     598A      6.982841   599A      7.018104   600A      7.082890  
     601A      7.119267   602A      7.157219   603A      7.215345  
     604A      7.327591   605A      7.563143   606A      7.596022  
     607A      7.625854   608A      7.818674   609A      7.891047  
     610A      7.915989   611A      8.420608   612A      8.584609  
     613A     15.541373   614A     15.825323   615A     16.648900  
     616A     18.183619   617A     18.687296   618A     19.160568  
     619A     19.516571   620A     20.065209   621A     20.723294  

    Final Occupation by Irrep:
              A 
    DOCC [    33 ]

  @DF-RHF Final Energy:  -399.76541482548640

   => Energetics <=

    Nuclear Repulsion Energy =            435.1111706496699298
    One-Electron Energy =               -1405.6144706140353264
    Two-Electron Energy =                 570.7378851388789371
    Total Energy =                       -399.7654148254864594

Computation Completed

*** tstop() called on c451-083.stampede2.tacc.utexas.edu at Thu Apr  1 10:15:23 2021
Module time:
	user time   =     320.95 seconds =       5.35 minutes
	system time =       9.20 seconds =       0.15 minutes
	total time  =         54 seconds =       0.90 minutes
Total time:
	user time   =     320.95 seconds =       5.35 minutes
	system time =       9.20 seconds =       0.15 minutes
	total time  =         54 seconds =       0.90 minutes
   => Loading Basis Set <=

    Name: (AUG-CC-PVTZ AUX)
    Role: RIFIT
    Keyword: DF_BASIS_MP2
    atoms 1     entry O          line   264 file /home1/07844/xy3866/miniconda3/envs/p4env/share/psi4/basis/aug-cc-pvtz-ri.gbs 
    atoms 2     entry N          line   206 file /home1/07844/xy3866/miniconda3/envs/p4env/share/psi4/basis/aug-cc-pvtz-ri.gbs 
    atoms 3-9   entry C          line   148 file /home1/07844/xy3866/miniconda3/envs/p4env/share/psi4/basis/aug-cc-pvtz-ri.gbs 
    atoms 10-18 entry H          line    30 file /home1/07844/xy3866/miniconda3/envs/p4env/share/psi4/basis/aug-cc-pvtz-ri.gbs 


*** tstart() called on c451-083.stampede2.tacc.utexas.edu
*** at Thu Apr  1 10:15:23 2021


  //>>>>>>>>>>>>>>>>>>>>>>>>>>>>>>>>>>>//
  //               DFMP2               //
  //<<<<<<<<<<<<<<<<<<<<<<<<<<<<<<<<<<<//

	 --------------------------------------------------------
	                          DF-MP2                         
	      2nd-Order Density-Fitted Moller-Plesset Theory     
	              RMP2 Wavefunction,   8 Threads             
	                                                         
	        Rob Parrish, Justin Turney, Andy Simmonett,      
	           Ed Hohenstein, and C. David Sherrill          
	 --------------------------------------------------------

   => Auxiliary Basis Set <=

  Basis Set: (AUG-CC-PVTZ AUX)
    Blend: AUG-CC-PVTZ-RI
    Number of shells: 378
    Number of basis functions: 1368
    Number of Cartesian functions: 1719
    Spherical Harmonics?: true
    Max angular momentum: 4

	 --------------------------------------------------------
	                 NBF =   621, NAUX =  1368
	 --------------------------------------------------------
	   CLASS    FOCC     OCC    AOCC    AVIR     VIR    FVIR
	   PAIRS       0      33      33     588     588       0
	 --------------------------------------------------------

  DFHelper Memory: AOs need 3.808 GiB; user supplied 22.352 GiB. Using in-core AOs.


         ------------------------------------------------------------
                                     CPHF                           
                                  Rob Parrish                       
         ------------------------------------------------------------

  ==> Geometry <==

    Molecular point group: c1
    Full point group: C1

    Geometry (in Angstrom), charge = 0, multiplicity = 1:

       Center              X                  Y                   Z               Mass       
    ------------   -----------------  -----------------  -----------------  -----------------
         O            1.728701111915     0.398210655562     0.000008467368    15.994914619570
         N            0.184652111915    -1.336843344438     0.000005467368    14.003074004430
         C           -0.542971888085     0.985695655562    -0.000000532632    12.000000000000
         C            0.436649111915    -0.031328344438     0.000005467368    12.000000000000
         C           -1.865870888085     0.560118655562    -0.000003532632    12.000000000000
         C           -0.133986888085     2.428951655562    -0.000001532632    12.000000000000
         C           -2.169426688085    -0.827938544438    -0.000003532632    12.000000000000
         C           -1.113268888085    -1.712760344438     0.000000467368    12.000000000000
         C            2.724151111915    -0.635464344438    -0.000009532632    12.000000000000
         H           -2.665562888085     1.298921655562    -0.000008532632     1.007825032230
         H           -1.013467888085     3.078292655562    -0.000018532632     1.007825032230
         H            0.474789111915     2.659558655562     0.879101467368     1.007825032230
         H            0.474818111915     2.659549655562    -0.879086532632     1.007825032230
         H           -3.192956888085    -1.158932344438    -0.000005532632     1.007825032230
         H           -1.291527888085    -2.786336344438     0.000000467368     1.007825032230
         H            2.632836111915    -1.264180344438    -0.888113532632     1.007825032230
         H            2.632884111915    -1.264165344438     0.888110467368     1.007825032230
         H            3.675250111915    -0.103835344438    -0.000038532632     1.007825032230

  Nuclear repulsion =  435.111170649669930
  Reference energy  = -399.765414825486403

  ==> Basis Set <==

  Basis Set: AUG-CC-PVTZ
    Blend: AUG-CC-PVTZ
    Number of shells: 207
    Number of basis functions: 621
    Number of Cartesian functions: 720
    Spherical Harmonics?: true
    Max angular momentum: 3

  ==> CGRSolver (by Rob Parrish) <==

   Number of roots    =         1
   Preconditioning    =    JACOBI
   Convergence cutoff =     1E-06
   Maximum iterations =       100

  ==> CPHFRHamiltonian (by Rob Parrish) <== 

  ==> MemDFJK: Density-Fitted J/K Matrices <==

    J tasked:                   Yes
    K tasked:                   Yes
    wK tasked:                   No
    OpenMP threads:               8
    Memory [MiB]:             22888
    Algorithm:                 Core
    Schwarz Cutoff:           1E-12
    Mask sparsity (%):       4.7593
    Fitting Condition:        1E-10

   => Auxiliary Basis Set <=

  Basis Set: (AUG-CC-PVTZ AUX)
    Blend: AUG-CC-PVTZ-JKFIT
    Number of shells: 396
    Number of basis functions: 1350
    Number of Cartesian functions: 1674
    Spherical Harmonics?: true
    Max angular momentum: 4

  ==> CPHF Iterations <==

  => Iterations <=

             Iter  Converged  Remaining    Residual
  CGR           1          0          1   1.053E-01
  CGR           2          0          1   3.720E-02
  CGR           3          0          1   2.316E-02
  CGR           4          0          1   7.810E-03
  CGR           5          0          1   2.942E-03
  CGR           6          0          1   1.094E-03
  CGR           7          0          1   3.483E-04
  CGR           8          0          1   1.205E-04
  CGR           9          0          1   4.343E-05
  CGR          10          0          1   1.689E-05
  CGR          11          0          1   7.949E-06
  CGR          12          0          1   3.473E-06
  CGR          13          1          0   9.728E-07

    CGRSolver converged.

	-----------------------------------------------------------
	 ==================> DF-MP2 Energies <==================== 
	-----------------------------------------------------------
	 Reference Energy          =    -399.7654148254864026 [Eh]
	 Singles Energy            =      -0.0000000000000000 [Eh]
	 Same-Spin Energy          =      -0.4235383202568869 [Eh]
	 Opposite-Spin Energy      =      -1.3365377798971978 [Eh]
	 Correlation Energy        =      -1.7600761001540848 [Eh]
	 Total Energy              =    -401.5254909256404972 [Eh]
	-----------------------------------------------------------
	 ================> DF-SCS-MP2 Energies <================== 
	-----------------------------------------------------------
	 SCS Same-Spin Scale       =       0.3333333333333333 [-]
	 SCS Opposite-Spin Scale   =       1.2000000000000000 [-]
	 SCS Same-Spin Energy      =      -0.1411794400856290 [Eh]
	 SCS Opposite-Spin Energy  =      -1.6038453358766374 [Eh]
	 SCS Correlation Energy    =      -1.7450247759622664 [Eh]
	 SCS Total Energy          =    -401.5104396014486952 [Eh]
	-----------------------------------------------------------



Properties will be evaluated at   0.000000,  -0.000000,   0.000000 [a0]

Properties computed using the MP2 density matrix

  Nuclear Dipole Moment: [e a0]
     X:     1.6268      Y:     2.9296      Z:    -0.0001

  Electronic Dipole Moment: [e a0]
     X:    -1.8306      Y:    -2.6646      Z:     0.0000

  Dipole Moment: [e a0]
     X:    -0.2038      Y:     0.2650      Z:    -0.0000     Total:     0.3343

  Dipole Moment: [D]
     X:    -0.5180      Y:     0.6736      Z:    -0.0000     Total:     0.8497


*** tstop() called on c451-083.stampede2.tacc.utexas.edu at Thu Apr  1 10:18:37 2021
Module time:
	user time   =    1193.84 seconds =      19.90 minutes
	system time =      17.97 seconds =       0.30 minutes
	total time  =        194 seconds =       3.23 minutes
Total time:
	user time   =    1515.67 seconds =      25.26 minutes
	system time =      27.20 seconds =       0.45 minutes
	total time  =        248 seconds =       4.13 minutes

    Psi4 stopped on: Thursday, 01 April 2021 10:18AM
    Psi4 wall time for execution: 0:04:08.77

*** Psi4 exiting successfully. Buy a developer a beer!
