
    -----------------------------------------------------------------------
          Psi4: An Open-Source Ab Initio Electronic Structure Package
                               Psi4 1.4a3.dev225 

                         Git: Rev {master} 7105e37 


    D. G. A. Smith, L. A. Burns, A. C. Simmonett, R. M. Parrish,
    M. C. Schieber, R. Galvelis, P. Kraus, H. Kruse, R. Di Remigio,
    A. Alenaizan, A. M. James, S. Lehtola, J. P. Misiewicz, M. Scheurer,
    R. A. Shaw, J. B. Schriber, Y. Xie, Z. L. Glick, D. A. Sirianni,
    J. S. O'Brien, J. M. Waldrop, A. Kumar, E. G. Hohenstein,
    B. P. Pritchard, B. R. Brooks, H. F. Schaefer III, A. Yu. Sokolov,
    K. Patkowski, A. E. DePrince III, U. Bozkaya, R. A. King,
    F. A. Evangelista, J. M. Turney, T. D. Crawford, C. D. Sherrill,
    J. Chem. Phys. 152(18) 184108 (2020). https://doi.org/10.1063/5.0006002

                            Additional Code Authors
    E. T. Seidl, C. L. Janssen, E. F. Valeev, M. L. Leininger,
    J. F. Gonthier, R. M. Richard, H. R. McAlexander, M. Saitow, X. Wang,
    P. Verma, and M. H. Lechner

             Previous Authors, Complete List of Code Contributors,
                       and Citations for Specific Modules
    https://github.com/psi4/psi4/blob/master/codemeta.json
    https://github.com/psi4/psi4/graphs/contributors
    http://psicode.org/psi4manual/master/introduction.html#citing-psifour

    -----------------------------------------------------------------------


    Psi4 started on: Saturday, 27 February 2021 08:16PM

    Process ID: 148325
    Host:       c402-023.stampede2.tacc.utexas.edu
    PSIDATADIR: /home1/07844/xy3866/miniconda3/envs/p4env/share/psi4
    Memory:     500.0 MiB
    Threads:    32
    
  ==> Input File <==

--------------------------------------------------------------------------
#psi4
#
memory 32 gb

molecule  {
0 1
  O        1.7152690     0.3729450     0.0000090
  N        0.1712200    -1.3621090     0.0000060
  C       -0.5564040     0.9604300     0.0000000
  C        0.4232170    -0.0565940     0.0000060
  C       -1.8793030     0.5348530    -0.0000030
  C       -0.1201549     2.4998976    -0.0000011
  C       -2.1785860    -0.8336660    -0.0000030
  C       -1.1267010    -1.7380260     0.0000010
  C        2.7107190    -0.6607300    -0.0000090
  H       -2.6789950     1.2736560    -0.0000080
  H       -1.0269000     3.0530270    -0.0000180
  H        0.4613570     2.6342930     0.8791020
  H        0.4613860     2.6342840    -0.8790860
  H       -3.2063890    -1.1841980    -0.0000050
  H       -1.3049600    -2.8116020     0.0000010
  H        2.6194040    -1.2894460    -0.8881130
  H        2.6194520    -1.2894310     0.8881110
  H        3.6618180    -0.1291010    -0.0000380
units angstrom
no_reorient  #important for SAPT in psi4, default
symmetry c1  #important for SAPT in psi4, default
}

set PROPERTIES_ORIGIN ["COM"]
properties('MP2/aug-cc-pvtz', properties = ['dipole'])
--------------------------------------------------------------------------

  Memory set to  29.802 GiB by Python driver.
    SCF Algorithm Type (re)set to DF.

*** tstart() called on c402-023.stampede2.tacc.utexas.edu
*** at Sat Feb 27 20:16:35 2021

   => Loading Basis Set <=

    Name: AUG-CC-PVTZ
    Role: ORBITAL
    Keyword: BASIS
    atoms 1     entry O          line   331 file /home1/07844/xy3866/miniconda3/envs/p4env/share/psi4/basis/aug-cc-pvtz.gbs 
    atoms 2     entry N          line   285 file /home1/07844/xy3866/miniconda3/envs/p4env/share/psi4/basis/aug-cc-pvtz.gbs 
    atoms 3-9   entry C          line   239 file /home1/07844/xy3866/miniconda3/envs/p4env/share/psi4/basis/aug-cc-pvtz.gbs 
    atoms 10-18 entry H          line    40 file /home1/07844/xy3866/miniconda3/envs/p4env/share/psi4/basis/aug-cc-pvtz.gbs 


         ---------------------------------------------------------
                                   SCF
               by Justin Turney, Rob Parrish, Andy Simmonett
                          and Daniel G. A. Smith
                              RHF Reference
                       32 Threads,  30517 MiB Core
         ---------------------------------------------------------

  ==> Geometry <==

    Molecular point group: c1
    Full point group: C1

    Geometry (in Angstrom), charge = 0, multiplicity = 1:

       Center              X                  Y                   Z               Mass       
    ------------   -----------------  -----------------  -----------------  -----------------
         O            1.725626051565     0.386924269755     0.000008477119    15.994914619570
         N            0.181577051565    -1.348129730245     0.000005477119    14.003074004430
         C           -0.546046948435     0.974409269755    -0.000000522881    12.000000000000
         C            0.433574051565    -0.042614730245     0.000005477119    12.000000000000
         C           -1.868945948435     0.548832269755    -0.000003522881    12.000000000000
         C           -0.109797848435     2.513876869755    -0.000001622881    12.000000000000
         C           -2.168228948435    -0.819686730245    -0.000003522881    12.000000000000
         C           -1.116343948435    -1.724046730245     0.000000477119    12.000000000000
         C            2.721076051565    -0.646750730245    -0.000009522881    12.000000000000
         H           -2.668637948435     1.287635269755    -0.000008522881     1.007825032230
         H           -1.016542948435     3.067006269755    -0.000018522881     1.007825032230
         H            0.471714051565     2.648272269755     0.879101477119     1.007825032230
         H            0.471743051565     2.648263269755    -0.879086522881     1.007825032230
         H           -3.196031948435    -1.170218730245    -0.000005522881     1.007825032230
         H           -1.294602948435    -2.797622730245     0.000000477119     1.007825032230
         H            2.629761051565    -1.275466730245    -0.888113522881     1.007825032230
         H            2.629809051565    -1.275451730245     0.888110477119     1.007825032230
         H            3.672175051565    -0.115121730245    -0.000038522881     1.007825032230

  Running in c1 symmetry.

  Rotational constants: A =      0.08095  B =      0.05478  C =      0.03307 [cm^-1]
  Rotational constants: A =   2426.74831  B =   1642.24974  C =    991.53360 [MHz]
  Nuclear repulsion =  433.600723609123975

  Charge       = 0
  Multiplicity = 1
  Electrons    = 66
  Nalpha       = 33
  Nbeta        = 33

  ==> Algorithm <==

  SCF Algorithm Type is DF.
  DIIS enabled.
  MOM disabled.
  Fractional occupation disabled.
  Guess Type is SAD.
  Energy threshold   = 1.00e-10
  Density threshold  = 1.00e-10
  Integral threshold = 1.00e-12

  ==> Primary Basis <==

  Basis Set: AUG-CC-PVTZ
    Blend: AUG-CC-PVTZ
    Number of shells: 207
    Number of basis functions: 621
    Number of Cartesian functions: 720
    Spherical Harmonics?: true
    Max angular momentum: 3

   => Loading Basis Set <=

    Name: (AUG-CC-PVTZ AUX)
    Role: JKFIT
    Keyword: DF_BASIS_SCF
    atoms 1     entry O          line   286 file /home1/07844/xy3866/miniconda3/envs/p4env/share/psi4/basis/aug-cc-pvtz-jkfit.gbs 
    atoms 2     entry N          line   224 file /home1/07844/xy3866/miniconda3/envs/p4env/share/psi4/basis/aug-cc-pvtz-jkfit.gbs 
    atoms 3-9   entry C          line   162 file /home1/07844/xy3866/miniconda3/envs/p4env/share/psi4/basis/aug-cc-pvtz-jkfit.gbs 
    atoms 10-18 entry H          line    70 file /home1/07844/xy3866/miniconda3/envs/p4env/share/psi4/basis/aug-cc-pvtz-jkfit.gbs 

  ==> Integral Setup <==

  DFHelper Memory: AOs need 3.756 GiB; user supplied 22.352 GiB. Using in-core AOs.

  ==> MemDFJK: Density-Fitted J/K Matrices <==

    J tasked:                   Yes
    K tasked:                   Yes
    wK tasked:                   No
    OpenMP threads:              32
    Memory [MiB]:             22888
    Algorithm:                 Core
    Schwarz Cutoff:           1E-12
    Mask sparsity (%):       7.8944
    Fitting Condition:        1E-10

   => Auxiliary Basis Set <=

  Basis Set: (AUG-CC-PVTZ AUX)
    Blend: AUG-CC-PVTZ-JKFIT
    Number of shells: 396
    Number of basis functions: 1350
    Number of Cartesian functions: 1674
    Spherical Harmonics?: true
    Max angular momentum: 4

  Minimum eigenvalue in the overlap matrix is 1.6406546381E-06.
  Reciprocal condition number of the overlap matrix is 8.9463859177E-08.
    Using symmetric orthogonalization.

  ==> Pre-Iterations <==

  SCF Guess: Superposition of Atomic Densities via on-the-fly atomic UHF (no occupation information).

   -------------------------
    Irrep   Nso     Nmo    
   -------------------------
     A        621     621 
   -------------------------
    Total     621     621
   -------------------------

  ==> Iterations <==

                           Total Energy        Delta E     RMS |[F,P]|

   @DF-RHF iter SAD:  -398.91599828117950   -3.98916e+02   0.00000e+00 
   @DF-RHF iter   1:  -399.52650879364717   -6.10511e-01   1.00390e-03 DIIS
   @DF-RHF iter   2:  -399.72504732027528   -1.98539e-01   4.11213e-04 DIIS
   @DF-RHF iter   3:  -399.75551204014647   -3.04647e-02   9.37195e-05 DIIS
   @DF-RHF iter   4:  -399.75822802581411   -2.71599e-03   3.19613e-05 DIIS
   @DF-RHF iter   5:  -399.75846276994895   -2.34744e-04   8.66144e-06 DIIS
   @DF-RHF iter   6:  -399.75848811634609   -2.53464e-05   3.54711e-06 DIIS
   @DF-RHF iter   7:  -399.75849195443431   -3.83809e-06   1.04793e-06 DIIS
   @DF-RHF iter   8:  -399.75849247087541   -5.16441e-07   3.71418e-07 DIIS
   @DF-RHF iter   9:  -399.75849253337589   -6.25005e-08   1.29127e-07 DIIS
   @DF-RHF iter  10:  -399.75849254018294   -6.80706e-09   5.03509e-08 DIIS
   @DF-RHF iter  11:  -399.75849254144237   -1.25942e-09   2.21266e-08 DIIS
   @DF-RHF iter  12:  -399.75849254175859   -3.16220e-10   1.20655e-08 DIIS
   @DF-RHF iter  13:  -399.75849254189308   -1.34492e-10   4.03623e-09 DIIS
   @DF-RHF iter  14:  -399.75849254191127   -1.81899e-11   1.44381e-09 DIIS
   @DF-RHF iter  15:  -399.75849254191195   -6.82121e-13   5.36470e-10 DIIS
   @DF-RHF iter  16:  -399.75849254191218   -2.27374e-13   1.62866e-10 DIIS
   @DF-RHF iter  17:  -399.75849254191291   -7.38964e-13   7.51176e-11 DIIS
  Energy and wave function converged.


  ==> Post-Iterations <==

    Orbital Energies [Eh]
    ---------------------

    Doubly Occupied:                                                      

       1A    -20.586149     2A    -15.558431     3A    -11.331648  
       4A    -11.273636     5A    -11.273375     6A    -11.254095  
       7A    -11.244824     8A    -11.229925     9A    -11.223849  
      10A     -1.414568    11A     -1.243646    12A     -1.092369  
      13A     -1.036153    14A     -0.955199    15A     -0.936424  
      16A     -0.836499    17A     -0.824814    18A     -0.719185  
      19A     -0.686391    20A     -0.653109    21A     -0.645302  
      22A     -0.599536    23A     -0.586489    24A     -0.585703  
      25A     -0.563795    26A     -0.554031    27A     -0.534708  
      28A     -0.517160    29A     -0.497250    30A     -0.476072  
      31A     -0.419906    32A     -0.377529    33A     -0.316051  

    Virtual:                                                              

      34A      0.028525    35A      0.033196    36A      0.034139  
      37A      0.045231    38A      0.045819    39A      0.048357  
      40A      0.061856    41A      0.062240    42A      0.067066  
      43A      0.088987    44A      0.091633    45A      0.095710  
      46A      0.101975    47A      0.112221    48A      0.114974  
      49A      0.117092    50A      0.121396    51A      0.123178  
      52A      0.128890    53A      0.131225    54A      0.132549  
      55A      0.134546    56A      0.141042    57A      0.142251  
      58A      0.144910    59A      0.149399    60A      0.154871  
      61A      0.162789    62A      0.168412    63A      0.168553  
      64A      0.180441    65A      0.183430    66A      0.183672  
      67A      0.208808    68A      0.211908    69A      0.217274  
      70A      0.224776    71A      0.232766    72A      0.233292  
      73A      0.251564    74A      0.253851    75A      0.260530  
      76A      0.270998    77A      0.273693    78A      0.279640  
      79A      0.280272    80A      0.281164    81A      0.299612  
      82A      0.303259    83A      0.306693    84A      0.320481  
      85A      0.322435    86A      0.324455    87A      0.326851  
      88A      0.328376    89A      0.338167    90A      0.338251  
      91A      0.339752    92A      0.352392    93A      0.355340  
      94A      0.360126    95A      0.361076    96A      0.365788  
      97A      0.373837    98A      0.379569    99A      0.383958  
     100A      0.397911   101A      0.398135   102A      0.409693  
     103A      0.413208   104A      0.416763   105A      0.417255  
     106A      0.424744   107A      0.432182   108A      0.437933  
     109A      0.438388   110A      0.440270   111A      0.443079  
     112A      0.446770   113A      0.453300   114A      0.457887  
     115A      0.460698   116A      0.467040   117A      0.469720  
     118A      0.477365   119A      0.479759   120A      0.487503  
     121A      0.493743   122A      0.494530   123A      0.498761  
     124A      0.499666   125A      0.503636   126A      0.513566  
     127A      0.517842   128A      0.526939   129A      0.534386  
     130A      0.537207   131A      0.541793   132A      0.542739  
     133A      0.547564   134A      0.549887   135A      0.556581  
     136A      0.559381   137A      0.568132   138A      0.576745  
     139A      0.577343   140A      0.586894   141A      0.588800  
     142A      0.593212   143A      0.604718   144A      0.630164  
     145A      0.632305   146A      0.638073   147A      0.640326  
     148A      0.643981   149A      0.645199   150A      0.655346  
     151A      0.669395   152A      0.675441   153A      0.684292  
     154A      0.700648   155A      0.701275   156A      0.720738  
     157A      0.729851   158A      0.749160   159A      0.755061  
     160A      0.756868   161A      0.764903   162A      0.769150  
     163A      0.789711   164A      0.801354   165A      0.805536  
     166A      0.806964   167A      0.816251   168A      0.822712  
     169A      0.834349   170A      0.836533   171A      0.839880  
     172A      0.841624   173A      0.852355   174A      0.853321  
     175A      0.858255   176A      0.858544   177A      0.874941  
     178A      0.879572   179A      0.881027   180A      0.894061  
     181A      0.894166   182A      0.902666   183A      0.912524  
     184A      0.918909   185A      0.921627   186A      0.931843  
     187A      0.932164   188A      0.937566   189A      0.946320  
     190A      0.949882   191A      0.964515   192A      0.966663  
     193A      0.969229   194A      0.976720   195A      0.979774  
     196A      0.986590   197A      0.991957   198A      1.005376  
     199A      1.006059   200A      1.012957   201A      1.015920  
     202A      1.020730   203A      1.026498   204A      1.036003  
     205A      1.039331   206A      1.043728   207A      1.050780  
     208A      1.056033   209A      1.065426   210A      1.066264  
     211A      1.070405   212A      1.080064   213A      1.086703  
     214A      1.089793   215A      1.098292   216A      1.104335  
     217A      1.107696   218A      1.129380   219A      1.131110  
     220A      1.141933   221A      1.142623   222A      1.150362  
     223A      1.163811   224A      1.165149   225A      1.171720  
     226A      1.179961   227A      1.187157   228A      1.188385  
     229A      1.198751   230A      1.203623   231A      1.208548  
     232A      1.218953   233A      1.222886   234A      1.224075  
     235A      1.233837   236A      1.238017   237A      1.248043  
     238A      1.248910   239A      1.253487   240A      1.258238  
     241A      1.259166   242A      1.274859   243A      1.284067  
     244A      1.298659   245A      1.305439   246A      1.307998  
     247A      1.324290   248A      1.327839   249A      1.337882  
     250A      1.348682   251A      1.358690   252A      1.358773  
     253A      1.385389   254A      1.395687   255A      1.406073  
     256A      1.418938   257A      1.426095   258A      1.428464  
     259A      1.443795   260A      1.446962   261A      1.474611  
     262A      1.488507   263A      1.491960   264A      1.498582  
     265A      1.500829   266A      1.533220   267A      1.543623  
     268A      1.548193   269A      1.552545   270A      1.554396  
     271A      1.568997   272A      1.570593   273A      1.575999  
     274A      1.582238   275A      1.592420   276A      1.614145  
     277A      1.620070   278A      1.629039   279A      1.636040  
     280A      1.640398   281A      1.650648   282A      1.655253  
     283A      1.671338   284A      1.683374   285A      1.683541  
     286A      1.694861   287A      1.699283   288A      1.708449  
     289A      1.709923   290A      1.735704   291A      1.743508  
     292A      1.749491   293A      1.760790   294A      1.770662  
     295A      1.782151   296A      1.784440   297A      1.787536  
     298A      1.791316   299A      1.791561   300A      1.803007  
     301A      1.817621   302A      1.833282   303A      1.834218  
     304A      1.840843   305A      1.865408   306A      1.865769  
     307A      1.874476   308A      1.880106   309A      1.888986  
     310A      1.891134   311A      1.931708   312A      1.934946  
     313A      1.946082   314A      1.951777   315A      1.951878  
     316A      1.963496   317A      1.967982   318A      1.982419  
     319A      1.994976   320A      2.014094   321A      2.024763  
     322A      2.028500   323A      2.042112   324A      2.059621  
     325A      2.065498   326A      2.073030   327A      2.075552  
     328A      2.084767   329A      2.087306   330A      2.118822  
     331A      2.129254   332A      2.135132   333A      2.136051  
     334A      2.150509   335A      2.160220   336A      2.188372  
     337A      2.192360   338A      2.195390   339A      2.205243  
     340A      2.216154   341A      2.225102   342A      2.243714  
     343A      2.246899   344A      2.260283   345A      2.261020  
     346A      2.278746   347A      2.280849   348A      2.294126  
     349A      2.305689   350A      2.307418   351A      2.315476  
     352A      2.357417   353A      2.359942   354A      2.370158  
     355A      2.379064   356A      2.381469   357A      2.400585  
     358A      2.431525   359A      2.435893   360A      2.499912  
     361A      2.509108   362A      2.527108   363A      2.534707  
     364A      2.545079   365A      2.557974   366A      2.597120  
     367A      2.604376   368A      2.632938   369A      2.652456  
     370A      2.680508   371A      2.693622   372A      2.716074  
     373A      2.729594   374A      2.763736   375A      2.767736  
     376A      2.791097   377A      2.815811   378A      2.850864  
     379A      2.852198   380A      2.868034   381A      2.923778  
     382A      2.949236   383A      2.968817   384A      2.979489  
     385A      3.004103   386A      3.063103   387A      3.081721  
     388A      3.094014   389A      3.113313   390A      3.117258  
     391A      3.165858   392A      3.192974   393A      3.216352  
     394A      3.253062   395A      3.270222   396A      3.276296  
     397A      3.310294   398A      3.337517   399A      3.344617  
     400A      3.348091   401A      3.358428   402A      3.366062  
     403A      3.393814   404A      3.416944   405A      3.427422  
     406A      3.447617   407A      3.451815   408A      3.460347  
     409A      3.477165   410A      3.484244   411A      3.500483  
     412A      3.527323   413A      3.538589   414A      3.542449  
     415A      3.553147   416A      3.568019   417A      3.587886  
     418A      3.592627   419A      3.604202   420A      3.623278  
     421A      3.639984   422A      3.643443   423A      3.664925  
     424A      3.672338   425A      3.681193   426A      3.682105  
     427A      3.682849   428A      3.698768   429A      3.700429  
     430A      3.703633   431A      3.737042   432A      3.748804  
     433A      3.750870   434A      3.761361   435A      3.791633  
     436A      3.805141   437A      3.810838   438A      3.820046  
     439A      3.835046   440A      3.842639   441A      3.880301  
     442A      3.885953   443A      3.886236   444A      3.903206  
     445A      3.911727   446A      3.922255   447A      3.939560  
     448A      3.953405   449A      3.955832   450A      3.959666  
     451A      3.960999   452A      3.974419   453A      3.996685  
     454A      4.004972   455A      4.016962   456A      4.025425  
     457A      4.039153   458A      4.060877   459A      4.071744  
     460A      4.102137   461A      4.104924   462A      4.110518  
     463A      4.119074   464A      4.125857   465A      4.130272  
     466A      4.143820   467A      4.150441   468A      4.157041  
     469A      4.181218   470A      4.186475   471A      4.208179  
     472A      4.218655   473A      4.223022   474A      4.245507  
     475A      4.248853   476A      4.264949   477A      4.279236  
     478A      4.281972   479A      4.307572   480A      4.317463  
     481A      4.320763   482A      4.326594   483A      4.348535  
     484A      4.365679   485A      4.369358   486A      4.378526  
     487A      4.388762   488A      4.403214   489A      4.417535  
     490A      4.428031   491A      4.469383   492A      4.471786  
     493A      4.511907   494A      4.531530   495A      4.541203  
     496A      4.567144   497A      4.567564   498A      4.582275  
     499A      4.591451   500A      4.611057   501A      4.613018  
     502A      4.643933   503A      4.670802   504A      4.695361  
     505A      4.708400   506A      4.715138   507A      4.717339  
     508A      4.726017   509A      4.737710   510A      4.772039  
     511A      4.799044   512A      4.822296   513A      4.831960  
     514A      4.841681   515A      4.848512   516A      4.871885  
     517A      4.875621   518A      4.882255   519A      4.906054  
     520A      4.912586   521A      4.940086   522A      4.941960  
     523A      4.958040   524A      4.961531   525A      5.000276  
     526A      5.021554   527A      5.038347   528A      5.056633  
     529A      5.061218   530A      5.078360   531A      5.103093  
     532A      5.104181   533A      5.116852   534A      5.135135  
     535A      5.157476   536A      5.160206   537A      5.196250  
     538A      5.210222   539A      5.211388   540A      5.229235  
     541A      5.229270   542A      5.255712   543A      5.300844  
     544A      5.301766   545A      5.353741   546A      5.362295  
     547A      5.368568   548A      5.402782   549A      5.420196  
     550A      5.420818   551A      5.463959   552A      5.481551  
     553A      5.548916   554A      5.565616   555A      5.587361  
     556A      5.600146   557A      5.604484   558A      5.610891  
     559A      5.639877   560A      5.693890   561A      5.705426  
     562A      5.711009   563A      5.728946   564A      5.764401  
     565A      5.788371   566A      5.826905   567A      5.829021  
     568A      5.879143   569A      5.882544   570A      5.923150  
     571A      5.934223   572A      5.964817   573A      5.994650  
     574A      6.066953   575A      6.069957   576A      6.105049  
     577A      6.123475   578A      6.144241   579A      6.151587  
     580A      6.154290   581A      6.181545   582A      6.222984  
     583A      6.269655   584A      6.334218   585A      6.380676  
     586A      6.404515   587A      6.525343   588A      6.592124  
     589A      6.612675   590A      6.684501   591A      6.711046  
     592A      6.746706   593A      6.749689   594A      6.799572  
     595A      6.827245   596A      6.847159   597A      6.940185  
     598A      6.982634   599A      7.013180   600A      7.077662  
     601A      7.108740   602A      7.154985   603A      7.212815  
     604A      7.320437   605A      7.544486   606A      7.594866  
     607A      7.620607   608A      7.809162   609A      7.886861  
     610A      7.912437   611A      8.417662   612A      8.580203  
     613A     15.562250   614A     15.805059   615A     16.485388  
     616A     18.214344   617A     18.586633   618A     19.289442  
     619A     19.515478   620A     20.126261   621A     20.606698  

    Final Occupation by Irrep:
              A 
    DOCC [    33 ]

  @DF-RHF Final Energy:  -399.75849254191291

   => Energetics <=

    Nuclear Repulsion Energy =            433.6007236091239747
    One-Electron Energy =               -1402.6227872585157002
    Two-Electron Energy =                 569.2635711074788105
    Total Energy =                       -399.7584925419129149

Computation Completed

*** tstop() called on c402-023.stampede2.tacc.utexas.edu at Sat Feb 27 20:17:06 2021
Module time:
	user time   =     547.15 seconds =       9.12 minutes
	system time =      40.39 seconds =       0.67 minutes
	total time  =         31 seconds =       0.52 minutes
Total time:
	user time   =     547.15 seconds =       9.12 minutes
	system time =      40.39 seconds =       0.67 minutes
	total time  =         31 seconds =       0.52 minutes
   => Loading Basis Set <=

    Name: (AUG-CC-PVTZ AUX)
    Role: RIFIT
    Keyword: DF_BASIS_MP2
    atoms 1     entry O          line   264 file /home1/07844/xy3866/miniconda3/envs/p4env/share/psi4/basis/aug-cc-pvtz-ri.gbs 
    atoms 2     entry N          line   206 file /home1/07844/xy3866/miniconda3/envs/p4env/share/psi4/basis/aug-cc-pvtz-ri.gbs 
    atoms 3-9   entry C          line   148 file /home1/07844/xy3866/miniconda3/envs/p4env/share/psi4/basis/aug-cc-pvtz-ri.gbs 
    atoms 10-18 entry H          line    30 file /home1/07844/xy3866/miniconda3/envs/p4env/share/psi4/basis/aug-cc-pvtz-ri.gbs 


*** tstart() called on c402-023.stampede2.tacc.utexas.edu
*** at Sat Feb 27 20:17:07 2021


  //>>>>>>>>>>>>>>>>>>>>>>>>>>>>>>>>>>>//
  //               DFMP2               //
  //<<<<<<<<<<<<<<<<<<<<<<<<<<<<<<<<<<<//

	 --------------------------------------------------------
	                          DF-MP2                         
	      2nd-Order Density-Fitted Moller-Plesset Theory     
	              RMP2 Wavefunction,  32 Threads             
	                                                         
	        Rob Parrish, Justin Turney, Andy Simmonett,      
	           Ed Hohenstein, and C. David Sherrill          
	 --------------------------------------------------------

   => Auxiliary Basis Set <=

  Basis Set: (AUG-CC-PVTZ AUX)
    Blend: AUG-CC-PVTZ-RI
    Number of shells: 378
    Number of basis functions: 1368
    Number of Cartesian functions: 1719
    Spherical Harmonics?: true
    Max angular momentum: 4

	 --------------------------------------------------------
	                 NBF =   621, NAUX =  1368
	 --------------------------------------------------------
	   CLASS    FOCC     OCC    AOCC    AVIR     VIR    FVIR
	   PAIRS       0      33      33     588     588       0
	 --------------------------------------------------------

  DFHelper Memory: AOs need 3.875 GiB; user supplied 22.352 GiB. Using in-core AOs.


         ------------------------------------------------------------
                                     CPHF                           
                                  Rob Parrish                       
         ------------------------------------------------------------

  ==> Geometry <==

    Molecular point group: c1
    Full point group: C1

    Geometry (in Angstrom), charge = 0, multiplicity = 1:

       Center              X                  Y                   Z               Mass       
    ------------   -----------------  -----------------  -----------------  -----------------
         O            1.725626051565     0.386924269755     0.000008477119    15.994914619570
         N            0.181577051565    -1.348129730245     0.000005477119    14.003074004430
         C           -0.546046948435     0.974409269755    -0.000000522881    12.000000000000
         C            0.433574051565    -0.042614730245     0.000005477119    12.000000000000
         C           -1.868945948435     0.548832269755    -0.000003522881    12.000000000000
         C           -0.109797848435     2.513876869755    -0.000001622881    12.000000000000
         C           -2.168228948435    -0.819686730245    -0.000003522881    12.000000000000
         C           -1.116343948435    -1.724046730245     0.000000477119    12.000000000000
         C            2.721076051565    -0.646750730245    -0.000009522881    12.000000000000
         H           -2.668637948435     1.287635269755    -0.000008522881     1.007825032230
         H           -1.016542948435     3.067006269755    -0.000018522881     1.007825032230
         H            0.471714051565     2.648272269755     0.879101477119     1.007825032230
         H            0.471743051565     2.648263269755    -0.879086522881     1.007825032230
         H           -3.196031948435    -1.170218730245    -0.000005522881     1.007825032230
         H           -1.294602948435    -2.797622730245     0.000000477119     1.007825032230
         H            2.629761051565    -1.275466730245    -0.888113522881     1.007825032230
         H            2.629809051565    -1.275451730245     0.888110477119     1.007825032230
         H            3.672175051565    -0.115121730245    -0.000038522881     1.007825032230

  Nuclear repulsion =  433.600723609124032
  Reference energy  = -399.758492541912915

  ==> Basis Set <==

  Basis Set: AUG-CC-PVTZ
    Blend: AUG-CC-PVTZ
    Number of shells: 207
    Number of basis functions: 621
    Number of Cartesian functions: 720
    Spherical Harmonics?: true
    Max angular momentum: 3

  ==> CGRSolver (by Rob Parrish) <==

   Number of roots    =         1
   Preconditioning    =    JACOBI
   Convergence cutoff =     1E-06
   Maximum iterations =       100

  ==> CPHFRHamiltonian (by Rob Parrish) <== 

  ==> MemDFJK: Density-Fitted J/K Matrices <==

    J tasked:                   Yes
    K tasked:                   Yes
    wK tasked:                   No
    OpenMP threads:              32
    Memory [MiB]:             22888
    Algorithm:                 Core
    Schwarz Cutoff:           1E-12
    Mask sparsity (%):       4.8086
    Fitting Condition:        1E-10

   => Auxiliary Basis Set <=

  Basis Set: (AUG-CC-PVTZ AUX)
    Blend: AUG-CC-PVTZ-JKFIT
    Number of shells: 396
    Number of basis functions: 1350
    Number of Cartesian functions: 1674
    Spherical Harmonics?: true
    Max angular momentum: 4

  ==> CPHF Iterations <==

  => Iterations <=

             Iter  Converged  Remaining    Residual
  CGR           1          0          1   1.033E-01
  CGR           2          0          1   3.597E-02
  CGR           3          0          1   2.232E-02
  CGR           4          0          1   7.702E-03
  CGR           5          0          1   3.030E-03
  CGR           6          0          1   1.141E-03
  CGR           7          0          1   3.615E-04
  CGR           8          0          1   1.270E-04
  CGR           9          0          1   4.310E-05
  CGR          10          0          1   1.464E-05
  CGR          11          0          1   6.484E-06
  CGR          12          0          1   3.178E-06
  CGR          13          0          1   1.356E-06
  CGR          14          1          0   4.637E-07

    CGRSolver converged.

	-----------------------------------------------------------
	 ==================> DF-MP2 Energies <==================== 
	-----------------------------------------------------------
	 Reference Energy          =    -399.7584925419129149 [Eh]
	 Singles Energy            =      -0.0000000000000000 [Eh]
	 Same-Spin Energy          =      -0.4232332109672284 [Eh]
	 Opposite-Spin Energy      =      -1.3365381937347875 [Eh]
	 Correlation Energy        =      -1.7597714047020159 [Eh]
	 Total Energy              =    -401.5182639466149226 [Eh]
	-----------------------------------------------------------
	 ================> DF-SCS-MP2 Energies <================== 
	-----------------------------------------------------------
	 SCS Same-Spin Scale       =       0.3333333333333333 [-]
	 SCS Opposite-Spin Scale   =       1.2000000000000000 [-]
	 SCS Same-Spin Energy      =      -0.1410777369890761 [Eh]
	 SCS Opposite-Spin Energy  =      -1.6038458324817451 [Eh]
	 SCS Correlation Energy    =      -1.7449235694708212 [Eh]
	 SCS Total Energy          =    -401.5034161113837285 [Eh]
	-----------------------------------------------------------



Properties will be evaluated at   0.000000,   0.000000,  -0.000000 [a0]

Properties computed using the MP2 density matrix

  Nuclear Dipole Moment: [e a0]
     X:     1.6009      Y:     2.8344      Z:    -0.0001

  Electronic Dipole Moment: [e a0]
     X:    -1.8178      Y:    -2.5793      Z:     0.0000

  Dipole Moment: [e a0]
     X:    -0.2169      Y:     0.2551      Z:    -0.0000     Total:     0.3349

  Dipole Moment: [D]
     X:    -0.5514      Y:     0.6484      Z:    -0.0000     Total:     0.8512


*** tstop() called on c402-023.stampede2.tacc.utexas.edu at Sat Feb 27 20:20:07 2021
Module time:
	user time   =    1555.95 seconds =      25.93 minutes
	system time =      55.54 seconds =       0.93 minutes
	total time  =        180 seconds =       3.00 minutes
Total time:
	user time   =    2104.01 seconds =      35.07 minutes
	system time =      95.95 seconds =       1.60 minutes
	total time  =        212 seconds =       3.53 minutes

    Psi4 stopped on: Saturday, 27 February 2021 08:20PM
    Psi4 wall time for execution: 0:03:33.11

*** Psi4 exiting successfully. Buy a developer a beer!
