
    -----------------------------------------------------------------------
          Psi4: An Open-Source Ab Initio Electronic Structure Package
                               Psi4 1.3.2 release

                         Git: Rev {HEAD} ecbda83 


    R. M. Parrish, L. A. Burns, D. G. A. Smith, A. C. Simmonett,
    A. E. DePrince III, E. G. Hohenstein, U. Bozkaya, A. Yu. Sokolov,
    R. Di Remigio, R. M. Richard, J. F. Gonthier, A. M. James,
    H. R. McAlexander, A. Kumar, M. Saitow, X. Wang, B. P. Pritchard,
    P. Verma, H. F. Schaefer III, K. Patkowski, R. A. King, E. F. Valeev,
    F. A. Evangelista, J. M. Turney, T. D. Crawford, and C. D. Sherrill,
    J. Chem. Theory Comput. 13(7) pp 3185--3197 (2017).
    (doi: 10.1021/acs.jctc.7b00174)


                         Additional Contributions by
    P. Kraus, H. Kruse, M. H. Lechner, M. C. Schieber, R. A. Shaw,
    A. Alenaizan, R. Galvelis, Z. L. Glick, S. Lehtola, and J. P. Misiewicz

    -----------------------------------------------------------------------


    Psi4 started on: Wednesday, 10 February 2021 01:13PM

    Process ID: 83604
    Host:       node144.bme.utexas.edu
    PSIDATADIR: /home/xy3866/psi4conda/share/psi4
    Memory:     500.0 MiB
    Threads:    8
    
  ==> Input File <==

--------------------------------------------------------------------------
#psi4
#
memory 32 gb

molecule  {
0 1
  O        0.7625561    -0.3345470    -0.6311955
  O       -0.5076550    -0.8220740    -0.2452740
  O       -1.0728670     1.3987690    -0.0973370
  C        1.6031630    -0.2426310     0.5338170
  C        2.9657370     0.2196450     0.0595640
  C       -1.3789950     0.2279050    -0.0301100
  C       -2.7361800    -0.3473490     0.2635940
  H        1.1531750     0.4718980     1.2294250
  H        1.6470430    -1.2298650     1.0038120
  H        3.6380680     0.2976270     0.9176960
  H        3.3895360    -0.4934290    -0.6504970
  H        2.8952950     1.1995690    -0.4169390
  H       -3.2299570    -0.5922870    -0.6804890
  H       -2.6567000    -1.2579100     0.8585660
  H       -3.3255750     0.4009600     0.7925810
units angstrom
no_reorient  #important for SAPT in psi4, default
symmetry c1  #important for SAPT in psi4, default
}

set PROPERTIES_ORIGIN ["COM"]
properties('MP2/aug-cc-pvtz', properties = ['dipole'])
--------------------------------------------------------------------------

  Memory set to  29.802 GiB by Python driver.
    SCF Algorithm Type (re)set to DF.

*** tstart() called on node144.bme.utexas.edu
*** at Wed Feb 10 13:13:51 2021

   => Loading Basis Set <=

    Name: AUG-CC-PVTZ
    Role: ORBITAL
    Keyword: BASIS
    atoms 1-3  entry O          line   327 file /home/xy3866/psi4conda/share/psi4/basis/aug-cc-pvtz.gbs 
    atoms 4-7  entry C          line   235 file /home/xy3866/psi4conda/share/psi4/basis/aug-cc-pvtz.gbs 
    atoms 8-15 entry H          line    36 file /home/xy3866/psi4conda/share/psi4/basis/aug-cc-pvtz.gbs 


         ---------------------------------------------------------
                                   SCF
               by Justin Turney, Rob Parrish, Andy Simmonett
                          and Daniel G. A. Smith
                              RHF Reference
                        8 Threads,  30517 MiB Core
         ---------------------------------------------------------

  ==> Geometry <==

    Molecular point group: c1
    Full point group: C1

    Geometry (in Angstrom), charge = 0, multiplicity = 1:

       Center              X                  Y                   Z               Mass       
    ------------   -----------------  -----------------  -----------------  -----------------
         O            0.801963515718    -0.343688248727    -0.606442172714    15.994914619570
         O           -0.468247584282    -0.831215248727    -0.220520672714    15.994914619570
         O           -1.033459584282     1.389627751273    -0.072583672714    15.994914619570
         C            1.642570415718    -0.251772248727     0.558570327286    12.000000000000
         C            3.005144415718     0.210503751273     0.084317327286    12.000000000000
         C           -1.339587584282     0.218763751273    -0.005356672714    12.000000000000
         C           -2.696772584282    -0.356490248727     0.288347327286    12.000000000000
         H            1.192582415718     0.462756751273     1.254178327286     1.007825032230
         H            1.686450415718    -1.239006248727     1.028565327286     1.007825032230
         H            3.677475415718     0.288485751273     0.942449327286     1.007825032230
         H            3.428943415718    -0.502570248727    -0.625743672714     1.007825032230
         H            2.934702415718     1.190427751273    -0.392185672714     1.007825032230
         H           -3.190549584282    -0.601428248727    -0.655735672714     1.007825032230
         H           -2.617292584282    -1.267051248727     0.883319327286     1.007825032230
         H           -3.286167584282     0.391818751273     0.817334327286     1.007825032230

  Running in c1 symmetry.

  Rotational constants: A =      0.23961  B =      0.04624  C =      0.04216 [cm^-1]
  Rotational constants: A =   7183.32930  B =   1386.25922  C =   1263.93081 [MHz]
  Nuclear repulsion =  317.078947106757823

  Charge       = 0
  Multiplicity = 1
  Electrons    = 56
  Nalpha       = 28
  Nbeta        = 28

  ==> Algorithm <==

  SCF Algorithm Type is DF.
  DIIS enabled.
  MOM disabled.
  Fractional occupation disabled.
  Guess Type is SAD.
  Energy threshold   = 1.00e-10
  Density threshold  = 1.00e-10
  Integral threshold = 0.00e+00

  ==> Primary Basis <==

  Basis Set: AUG-CC-PVTZ
    Blend: AUG-CC-PVTZ
    Number of shells: 170
    Number of basis function: 506
    Number of Cartesian functions: 585
    Spherical Harmonics?: true
    Max angular momentum: 3

   => Loading Basis Set <=

    Name: (AUG-CC-PVTZ AUX)
    Role: JKFIT
    Keyword: DF_BASIS_SCF
    atoms 1-3  entry O          line   286 file /home/xy3866/psi4conda/share/psi4/basis/aug-cc-pvtz-jkfit.gbs 
    atoms 4-7  entry C          line   162 file /home/xy3866/psi4conda/share/psi4/basis/aug-cc-pvtz-jkfit.gbs 
    atoms 8-15 entry H          line    70 file /home/xy3866/psi4conda/share/psi4/basis/aug-cc-pvtz-jkfit.gbs 

  ==> Pre-Iterations <==

   -------------------------------------------------------
    Irrep   Nso     Nmo     Nalpha   Nbeta   Ndocc  Nsocc
   -------------------------------------------------------
     A        506     506       0       0       0       0
   -------------------------------------------------------
    Total     506     506      28      28      28       0
   -------------------------------------------------------

  ==> Integral Setup <==

  DFHelper Memory: AOs need 2.041 GiB; user supplied 22.352 GiB. Using in-core AOs.

  ==> MemDFJK: Density-Fitted J/K Matrices <==

    J tasked:                   Yes
    K tasked:                   Yes
    wK tasked:                   No
    OpenMP threads:               8
    Memory [MiB]:             22888
    Algorithm:                 Disk
    Schwarz Cutoff:           1E-12
    Mask sparsity (%):       6.0242
    Fitting Condition:        1E-10

   => Auxiliary Basis Set <=

  Basis Set: (AUG-CC-PVTZ AUX)
    Blend: AUG-CC-PVTZ-JKFIT
    Number of shells: 322
    Number of basis function: 1096
    Number of Cartesian functions: 1357
    Spherical Harmonics?: true
    Max angular momentum: 4

  Minimum eigenvalue in the overlap matrix is 1.2837014909E-05.
  Using Symmetric Orthogonalization.

  SCF Guess: Superposition of Atomic Densities via on-the-fly atomic UHF.

  ==> Iterations <==

                           Total Energy        Delta E     RMS |[F,P]|

   @DF-RHF iter SAD:  -379.42159837880223   -3.79422e+02   0.00000e+00 
   @DF-RHF iter   1:  -380.52727162479653   -1.10567e+00   1.37837e-03 DIIS
   @DF-RHF iter   2:  -380.69936784193305   -1.72096e-01   8.66383e-04 DIIS
   @DF-RHF iter   3:  -380.76668203377062   -6.73142e-02   1.98505e-04 DIIS
   @DF-RHF iter   4:  -380.77191044450831   -5.22841e-03   7.13099e-05 DIIS
   @DF-RHF iter   5:  -380.77278480787533   -8.74363e-04   1.76908e-05 DIIS
   @DF-RHF iter   6:  -380.77285009686187   -6.52890e-05   8.44380e-06 DIIS
   @DF-RHF iter   7:  -380.77286688090243   -1.67840e-05   3.00940e-06 DIIS
   @DF-RHF iter   8:  -380.77286986381864   -2.98292e-06   1.17326e-06 DIIS
   @DF-RHF iter   9:  -380.77287035953862   -4.95720e-07   3.97003e-07 DIIS
   @DF-RHF iter  10:  -380.77287041060782   -5.10692e-08   1.14804e-07 DIIS
   @DF-RHF iter  11:  -380.77287041442935   -3.82153e-09   4.76450e-08 DIIS
   @DF-RHF iter  12:  -380.77287041509305   -6.63704e-10   1.68673e-08 DIIS
   @DF-RHF iter  13:  -380.77287041520998   -1.16927e-10   6.00044e-09 DIIS
   @DF-RHF iter  14:  -380.77287041522629   -1.63141e-11   2.17647e-09 DIIS
   @DF-RHF iter  15:  -380.77287041522681   -5.11591e-13   8.42785e-10 DIIS
   @DF-RHF iter  16:  -380.77287041522823   -1.42109e-12   3.35776e-10 DIIS
   @DF-RHF iter  17:  -380.77287041522902   -7.95808e-13   1.37145e-10 DIIS
   @DF-RHF iter  18:  -380.77287041523010   -1.08002e-12   7.19342e-11 DIIS
  Energy and wave function converged.


  ==> Post-Iterations <==

    Orbital Energies [Eh]
    ---------------------

    Doubly Occupied:                                                      

       1A    -20.658211     2A    -20.633077     3A    -20.555928  
       4A    -11.393114     5A    -11.289207     6A    -11.251847  
       7A    -11.227754     8A     -1.525559     9A     -1.393015  
      10A     -1.261089    11A     -1.036715    12A     -1.003281  
      13A     -0.856738    14A     -0.801110    15A     -0.710966  
      16A     -0.698166    17A     -0.681101    18A     -0.642724  
      19A     -0.613722    20A     -0.601342    21A     -0.583529  
      22A     -0.549259    23A     -0.535023    24A     -0.530859  
      25A     -0.516451    26A     -0.477392    27A     -0.467222  
      28A     -0.449905  

    Virtual:                                                              

      29A      0.027524    30A      0.034136    31A      0.040817  
      32A      0.042606    33A      0.051193    34A      0.054798  
      35A      0.059743    36A      0.070123    37A      0.087291  
      38A      0.100879    39A      0.105158    40A      0.113798  
      41A      0.119779    42A      0.127635    43A      0.129836  
      44A      0.134997    45A      0.137585    46A      0.145071  
      47A      0.146431    48A      0.148948    49A      0.149861  
      50A      0.162238    51A      0.176010    52A      0.187237  
      53A      0.194045    54A      0.200335    55A      0.213583  
      56A      0.220466    57A      0.226633    58A      0.229541  
      59A      0.239102    60A      0.242277    61A      0.250691  
      62A      0.261643    63A      0.271193    64A      0.284183  
      65A      0.285333    66A      0.287820    67A      0.290050  
      68A      0.304138    69A      0.308143    70A      0.314839  
      71A      0.320599    72A      0.325178    73A      0.328182  
      74A      0.329973    75A      0.342615    76A      0.345482  
      77A      0.350497    78A      0.361657    79A      0.373054  
      80A      0.377278    81A      0.384929    82A      0.387592  
      83A      0.392381    84A      0.395725    85A      0.399455  
      86A      0.407890    87A      0.414087    88A      0.421733  
      89A      0.426718    90A      0.426951    91A      0.435888  
      92A      0.439793    93A      0.447220    94A      0.450355  
      95A      0.456544    96A      0.464409    97A      0.467367  
      98A      0.474502    99A      0.476823   100A      0.484798  
     101A      0.492893   102A      0.499017   103A      0.506646  
     104A      0.509887   105A      0.519653   106A      0.526302  
     107A      0.530680   108A      0.534514   109A      0.539662  
     110A      0.543904   111A      0.549047   112A      0.566325  
     113A      0.574550   114A      0.580647   115A      0.585910  
     116A      0.595207   117A      0.613118   118A      0.618525  
     119A      0.626136   120A      0.645798   121A      0.657829  
     122A      0.667629   123A      0.690422   124A      0.724739  
     125A      0.729951   126A      0.755201   127A      0.760821  
     128A      0.774294   129A      0.788982   130A      0.790622  
     131A      0.801227   132A      0.804427   133A      0.817124  
     134A      0.825725   135A      0.829533   136A      0.832277  
     137A      0.841787   138A      0.850595   139A      0.862264  
     140A      0.867452   141A      0.881723   142A      0.885344  
     143A      0.889280   144A      0.893035   145A      0.896605  
     146A      0.900258   147A      0.909353   148A      0.915683  
     149A      0.925842   150A      0.928772   151A      0.937318  
     152A      0.946692   153A      0.948105   154A      0.952381  
     155A      0.967883   156A      0.978033   157A      0.979257  
     158A      0.994959   159A      1.006258   160A      1.010335  
     161A      1.013732   162A      1.024094   163A      1.034112  
     164A      1.037200   165A      1.039230   166A      1.061562  
     167A      1.064579   168A      1.066575   169A      1.087020  
     170A      1.092107   171A      1.095839   172A      1.107146  
     173A      1.114941   174A      1.122620   175A      1.129053  
     176A      1.133512   177A      1.139823   178A      1.148160  
     179A      1.162745   180A      1.165707   181A      1.175130  
     182A      1.190963   183A      1.196458   184A      1.210550  
     185A      1.219215   186A      1.231503   187A      1.234841  
     188A      1.245086   189A      1.249821   190A      1.253097  
     191A      1.262209   192A      1.263967   193A      1.274509  
     194A      1.282529   195A      1.300684   196A      1.320771  
     197A      1.326232   198A      1.339273   199A      1.342885  
     200A      1.364807   201A      1.371238   202A      1.391443  
     203A      1.412893   204A      1.426874   205A      1.435061  
     206A      1.449201   207A      1.458654   208A      1.474170  
     209A      1.498241   210A      1.502445   211A      1.505240  
     212A      1.522573   213A      1.524595   214A      1.547939  
     215A      1.548666   216A      1.569394   217A      1.577040  
     218A      1.585956   219A      1.593851   220A      1.608272  
     221A      1.615500   222A      1.628560   223A      1.637364  
     224A      1.646958   225A      1.663543   226A      1.672381  
     227A      1.679277   228A      1.687588   229A      1.696299  
     230A      1.708699   231A      1.713811   232A      1.724011  
     233A      1.725118   234A      1.738761   235A      1.742833  
     236A      1.761962   237A      1.774258   238A      1.779250  
     239A      1.787405   240A      1.799592   241A      1.818273  
     242A      1.831112   243A      1.847317   244A      1.853025  
     245A      1.860892   246A      1.865954   247A      1.876214  
     248A      1.885201   249A      1.917604   250A      1.922659  
     251A      1.941858   252A      1.949871   253A      1.970953  
     254A      1.991219   255A      2.001646   256A      2.009976  
     257A      2.025143   258A      2.037222   259A      2.053703  
     260A      2.069127   261A      2.084284   262A      2.097973  
     263A      2.117541   264A      2.156737   265A      2.179022  
     266A      2.192634   267A      2.202744   268A      2.213254  
     269A      2.220182   270A      2.233285   271A      2.244490  
     272A      2.259470   273A      2.268186   274A      2.275021  
     275A      2.299887   276A      2.325003   277A      2.347775  
     278A      2.376108   279A      2.402082   280A      2.407361  
     281A      2.426718   282A      2.442601   283A      2.450502  
     284A      2.475292   285A      2.490696   286A      2.518802  
     287A      2.539841   288A      2.547077   289A      2.569883  
     290A      2.593015   291A      2.625963   292A      2.636427  
     293A      2.666999   294A      2.692918   295A      2.695569  
     296A      2.732890   297A      2.753338   298A      2.764791  
     299A      2.797941   300A      2.821101   301A      2.830945  
     302A      2.836696   303A      2.865554   304A      2.898233  
     305A      2.921338   306A      2.936757   307A      2.970417  
     308A      3.004494   309A      3.012916   310A      3.037111  
     311A      3.052096   312A      3.066627   313A      3.108782  
     314A      3.148411   315A      3.176126   316A      3.219217  
     317A      3.230059   318A      3.250972   319A      3.254937  
     320A      3.301944   321A      3.342304   322A      3.366415  
     323A      3.385499   324A      3.407157   325A      3.430266  
     326A      3.443049   327A      3.462864   328A      3.466907  
     329A      3.495364   330A      3.520164   331A      3.531928  
     332A      3.555878   333A      3.582584   334A      3.592189  
     335A      3.607255   336A      3.617220   337A      3.631903  
     338A      3.641527   339A      3.664238   340A      3.680966  
     341A      3.695173   342A      3.711611   343A      3.721538  
     344A      3.739849   345A      3.757032   346A      3.774655  
     347A      3.787101   348A      3.791758   349A      3.825782  
     350A      3.835777   351A      3.860249   352A      3.878210  
     353A      3.896330   354A      3.903959   355A      3.928508  
     356A      3.938692   357A      3.942317   358A      3.953136  
     359A      3.966709   360A      3.986471   361A      3.991087  
     362A      4.002464   363A      4.020066   364A      4.047894  
     365A      4.056870   366A      4.087609   367A      4.092083  
     368A      4.111351   369A      4.128311   370A      4.138432  
     371A      4.153911   372A      4.167278   373A      4.184772  
     374A      4.212021   375A      4.220167   376A      4.243100  
     377A      4.254074   378A      4.296492   379A      4.325895  
     380A      4.331119   381A      4.344822   382A      4.356884  
     383A      4.380412   384A      4.410111   385A      4.421267  
     386A      4.441331   387A      4.469515   388A      4.471914  
     389A      4.477305   390A      4.526310   391A      4.527797  
     392A      4.568097   393A      4.581803   394A      4.623928  
     395A      4.648099   396A      4.674559   397A      4.705373  
     398A      4.715543   399A      4.741847   400A      4.792915  
     401A      4.795083   402A      4.823319   403A      4.834681  
     404A      4.838498   405A      4.848610   406A      4.866303  
     407A      4.888643   408A      4.916055   409A      4.948310  
     410A      4.954959   411A      4.987028   412A      5.010741  
     413A      5.048569   414A      5.059781   415A      5.063484  
     416A      5.088606   417A      5.097932   418A      5.137150  
     419A      5.152673   420A      5.154106   421A      5.172655  
     422A      5.187442   423A      5.231787   424A      5.256708  
     425A      5.281476   426A      5.349648   427A      5.363071  
     428A      5.368903   429A      5.385067   430A      5.411153  
     431A      5.418724   432A      5.457130   433A      5.484986  
     434A      5.518820   435A      5.572089   436A      5.586242  
     437A      5.598296   438A      5.656199   439A      5.690170  
     440A      5.745860   441A      5.762510   442A      5.782432  
     443A      5.790475   444A      5.854376   445A      5.904710  
     446A      5.985326   447A      6.016027   448A      6.027474  
     449A      6.043936   450A      6.111756   451A      6.129453  
     452A      6.149017   453A      6.191656   454A      6.217812  
     455A      6.251884   456A      6.324452   457A      6.402226  
     458A      6.453847   459A      6.634009   460A      6.684655  
     461A      6.693703   462A      6.711970   463A      6.734744  
     464A      6.749868   465A      6.767138   466A      6.776608  
     467A      6.783277   468A      6.848839   469A      6.884462  
     470A      6.939497   471A      6.974699   472A      7.017841  
     473A      7.024956   474A      7.082086   475A      7.112530  
     476A      7.166291   477A      7.247985   478A      7.275381  
     479A      7.336272   480A      7.364590   481A      7.408022  
     482A      7.415587   483A      7.436038   484A      7.463653  
     485A      7.475944   486A      7.503346   487A      7.598538  
     488A      7.631290   489A      7.686304   490A      7.739463  
     491A      7.762238   492A      7.826763   493A      7.875339  
     494A      7.944797   495A      8.010755   496A      8.173315  
     497A      8.224197   498A      8.519286   499A      8.982866  
     500A     14.800029   501A     15.541256   502A     15.706474  
     503A     17.219173   504A     17.762895   505A     18.412466  
     506A     19.143065  

    Final Occupation by Irrep:
              A 
    DOCC [    28 ]

  @DF-RHF Final Energy:  -380.77287041523010

   => Energetics <=

    Nuclear Repulsion Energy =            317.0789471067578233
    One-Electron Energy =               -1149.8150238679024824
    Two-Electron Energy =                 451.9632063459145570
    Total Energy =                       -380.7728704152301020

Computation Completed

*** tstop() called on node144.bme.utexas.edu at Wed Feb 10 13:14:29 2021
Module time:
	user time   =     169.09 seconds =       2.82 minutes
	system time =      24.17 seconds =       0.40 minutes
	total time  =         38 seconds =       0.63 minutes
Total time:
	user time   =     169.09 seconds =       2.82 minutes
	system time =      24.17 seconds =       0.40 minutes
	total time  =         38 seconds =       0.63 minutes
   => Loading Basis Set <=

    Name: (AUG-CC-PVTZ AUX)
    Role: RIFIT
    Keyword: DF_BASIS_MP2
    atoms 1-3  entry O          line   264 file /home/xy3866/psi4conda/share/psi4/basis/aug-cc-pvtz-ri.gbs 
    atoms 4-7  entry C          line   148 file /home/xy3866/psi4conda/share/psi4/basis/aug-cc-pvtz-ri.gbs 
    atoms 8-15 entry H          line    30 file /home/xy3866/psi4conda/share/psi4/basis/aug-cc-pvtz-ri.gbs 


*** tstart() called on node144.bme.utexas.edu
*** at Wed Feb 10 13:14:29 2021


  //>>>>>>>>>>>>>>>>>>>>>>>>>>>>>>>>>>>//
  //               DFMP2               //
  //<<<<<<<<<<<<<<<<<<<<<<<<<<<<<<<<<<<//

	 --------------------------------------------------------
	                          DF-MP2                         
	      2nd-Order Density-Fitted Moller-Plesset Theory     
	              RMP2 Wavefunction,   8 Threads             
	                                                         
	        Rob Parrish, Justin Turney, Andy Simmonett,      
	           Ed Hohenstein, and C. David Sherrill          
	 --------------------------------------------------------

   => Auxiliary Basis Set <=

  Basis Set: (AUG-CC-PVTZ AUX)
    Blend: AUG-CC-PVTZ-RI
    Number of shells: 308
    Number of basis function: 1110
    Number of Cartesian functions: 1392
    Spherical Harmonics?: true
    Max angular momentum: 4

	 --------------------------------------------------------
	                 NBF =   506, NAUX =  1110
	 --------------------------------------------------------
	   CLASS    FOCC     OCC    AOCC    AVIR     VIR    FVIR
	   PAIRS       0      28      28     478     478       0
	 --------------------------------------------------------

  DFHelper Memory: AOs need 2.041 GiB; user supplied 22.352 GiB. Using in-core AOs.


         ------------------------------------------------------------
                                     CPHF                           
                                  Rob Parrish                       
         ------------------------------------------------------------

  ==> Geometry <==

    Molecular point group: c1
    Full point group: C1

    Geometry (in Angstrom), charge = 0, multiplicity = 1:

       Center              X                  Y                   Z               Mass       
    ------------   -----------------  -----------------  -----------------  -----------------
         O            0.801963515718    -0.343688248727    -0.606442172714    15.994914619570
         O           -0.468247584282    -0.831215248727    -0.220520672714    15.994914619570
         O           -1.033459584282     1.389627751273    -0.072583672714    15.994914619570
         C            1.642570415718    -0.251772248727     0.558570327286    12.000000000000
         C            3.005144415718     0.210503751273     0.084317327286    12.000000000000
         C           -1.339587584282     0.218763751273    -0.005356672714    12.000000000000
         C           -2.696772584282    -0.356490248727     0.288347327286    12.000000000000
         H            1.192582415718     0.462756751273     1.254178327286     1.007825032230
         H            1.686450415718    -1.239006248727     1.028565327286     1.007825032230
         H            3.677475415718     0.288485751273     0.942449327286     1.007825032230
         H            3.428943415718    -0.502570248727    -0.625743672714     1.007825032230
         H            2.934702415718     1.190427751273    -0.392185672714     1.007825032230
         H           -3.190549584282    -0.601428248727    -0.655735672714     1.007825032230
         H           -2.617292584282    -1.267051248727     0.883319327286     1.007825032230
         H           -3.286167584282     0.391818751273     0.817334327286     1.007825032230

  Nuclear repulsion =  317.078947106757823
  Reference energy  = -380.772870415230102

  ==> Basis Set <==

  Basis Set: AUG-CC-PVTZ
    Blend: AUG-CC-PVTZ
    Number of shells: 170
    Number of basis function: 506
    Number of Cartesian functions: 585
    Spherical Harmonics?: true
    Max angular momentum: 3

  ==> CGRSolver (by Rob Parrish) <==

   Number of roots    =         1
   Preconditioning    =    JACOBI
   Convergence cutoff =     1E-06
   Maximum iterations =       100

  ==> CPHFRHamiltonian (by Rob Parrish) <== 

  ==> MemDFJK: Density-Fitted J/K Matrices <==

    J tasked:                   Yes
    K tasked:                   Yes
    wK tasked:                   No
    OpenMP threads:               8
    Memory [MiB]:             22888
    Algorithm:                 Disk
    Schwarz Cutoff:           1E-12
    Mask sparsity (%):       6.0242
    Fitting Condition:        1E-10

   => Auxiliary Basis Set <=

  Basis Set: (AUG-CC-PVTZ AUX)
    Blend: AUG-CC-PVTZ-JKFIT
    Number of shells: 322
    Number of basis function: 1096
    Number of Cartesian functions: 1357
    Spherical Harmonics?: true
    Max angular momentum: 4

  ==> CPHF Iterations <==

  => Iterations <=

             Iter  Converged  Remaining    Residual
  CGR           1          0          1   1.115E-01
  CGR           2          0          1   3.170E-02
  CGR           3          0          1   1.304E-02
  CGR           4          0          1   4.693E-03
  CGR           5          0          1   1.783E-03
  CGR           6          0          1   5.759E-04
  CGR           7          0          1   2.477E-04
  CGR           8          0          1   9.508E-05
  CGR           9          0          1   3.040E-05
  CGR          10          0          1   1.192E-05
  CGR          11          0          1   3.762E-06
  CGR          12          0          1   1.250E-06
  CGR          13          1          0   3.708E-07

    CGRSolver converged.

	-----------------------------------------------------------
	 ==================> DF-MP2 Energies <==================== 
	-----------------------------------------------------------
	 Reference Energy          =    -380.7728704152301020 [Eh]
	 Singles Energy            =      -0.0000000000000000 [Eh]
	 Same-Spin Energy          =      -0.3638729222243572 [Eh]
	 Opposite-Spin Energy      =      -1.1687920906935663 [Eh]
	 Correlation Energy        =      -1.5326650129179236 [Eh]
	 Total Energy              =    -382.3055354281480049 [Eh]
	-----------------------------------------------------------
	 ================> DF-SCS-MP2 Energies <================== 
	-----------------------------------------------------------
	 SCS Same-Spin Scale       =       0.3333333333333333 [-]
	 SCS Opposite-Spin Scale   =       1.2000000000000000 [-]
	 SCS Same-Spin Energy      =      -0.1212909740747857 [Eh]
	 SCS Opposite-Spin Energy  =      -1.4025505088322794 [Eh]
	 SCS Correlation Energy    =      -1.5238414829070652 [Eh]
	 SCS Total Energy          =    -382.2967118981371755 [Eh]
	-----------------------------------------------------------



Properties will be evaluated at  -0.000000,   0.000000,   0.000000 [a0]

Properties computed using the MP2 density matrix

  Nuclear Dipole Moment: [e a0]
     X:     3.5835      Y:    -1.1957      Z:     3.0445

  Electronic Dipole Moment: [e a0]
     X:    -3.6552      Y:     0.6038      Z:    -2.3951

  Dipole Moment: [e a0]
     X:    -0.0717      Y:    -0.5919      Z:     0.6494     Total:     0.8816

  Dipole Moment: [D]
     X:    -0.1822      Y:    -1.5045      Z:     1.6506     Total:     2.2408


*** tstop() called on node144.bme.utexas.edu at Wed Feb 10 13:15:39 2021
Module time:
	user time   =     410.68 seconds =       6.84 minutes
	system time =      24.27 seconds =       0.40 minutes
	total time  =         70 seconds =       1.17 minutes
Total time:
	user time   =     579.93 seconds =       9.67 minutes
	system time =      48.45 seconds =       0.81 minutes
	total time  =        108 seconds =       1.80 minutes

    Psi4 stopped on: Wednesday, 10 February 2021 01:15PM
    Psi4 wall time for execution: 0:01:48.76

*** Psi4 exiting successfully. Buy a developer a beer!
