opt=Tight                                                               
Freq      RMP2-FC                                                     6-31G(d)            
Number of atoms                            I               16
Info1-9                                    I   N=           9
          25          25        1002           0           0         100
           6           2           1
Charge                                     I                0
Multiplicity                               I                1
Number of electrons                        I               78
Number of alpha electrons                  I               39
Number of beta electrons                   I               39
Number of basis functions                  I              175
Number of independent functions            I              175
Number of point charges in /Mol/           I                0
Number of translation vectors              I                0
Atomic numbers                             I   N=          16
           8           6           7           6           7           6
           6           7           6           7           7           1
           1           1           1           1
Nuclear charges                            R   N=          16
  8.00000000E+00  6.00000000E+00  7.00000000E+00  6.00000000E+00  7.00000000E+00
  6.00000000E+00  6.00000000E+00  7.00000000E+00  6.00000000E+00  7.00000000E+00
  7.00000000E+00  1.00000000E+00  1.00000000E+00  1.00000000E+00  1.00000000E+00
  1.00000000E+00
Current cartesian coordinates              R   N=          48
  3.33309895E-01  5.09675201E+00 -1.63990434E-02  3.94737333E-01  2.78279181E+00
  7.97653401E-03  2.77021757E+00  1.49415921E+00 -9.61492656E-03  3.15511888E+00
 -1.07100229E+00  3.44119129E-03  1.33049570E+00 -2.74604608E+00  2.09797395E-02
 -9.91594104E-01 -1.61894539E+00 -7.01277368E-03 -1.61304188E+00  9.40218120E-01
  2.87616317E-02 -4.19121414E+00  1.29896751E+00  2.51938288E-02 -5.11760513E+00
 -1.02490431E+00  6.76521956E-04 -3.26963061E+00 -2.85023046E+00 -1.42201891E-02
  5.64976146E+00 -1.85631389E+00 -1.50941875E-01  4.27796013E+00  2.67214267E+00
 -1.98160462E-01 -7.10697653E+00 -1.50015153E+00 -6.72553531E-03 -3.50124867E+00
 -4.75106819E+00 -4.04892721E-02  5.78786832E+00 -3.74919019E+00  1.28456024E-01
  6.88284745E+00 -8.78431634E-01  9.45252350E-01
Force Field                                I                0
Int Atom Types                             I   N=          16
           0           0           0           0           0           0
           0           0           0           0           0           0
           0           0           0           0
MM charges                                 R   N=          16
  0.00000000E+00  0.00000000E+00  0.00000000E+00  0.00000000E+00  0.00000000E+00
  0.00000000E+00  0.00000000E+00  0.00000000E+00  0.00000000E+00  0.00000000E+00
  0.00000000E+00  0.00000000E+00  0.00000000E+00  0.00000000E+00  0.00000000E+00
  0.00000000E+00
Integer atomic weights                     I   N=          16
          16          12          14          12          14          12
          12          14          12          14          14           1
           1           1           1           1
Real atomic weights                        R   N=          16
  1.59949146E+01  1.20000000E+01  1.40030740E+01  1.20000000E+01  1.40030740E+01
  1.20000000E+01  1.20000000E+01  1.40030740E+01  1.20000000E+01  1.40030740E+01
  1.40030740E+01  1.00782504E+00  1.00782504E+00  1.00782504E+00  1.00782504E+00
  1.00782504E+00
Atom fragment info                         I   N=          16
           0           0           0           0           0           0
           0           0           0           0           0           0
           0           0           0           0
Atom residue num                           I   N=          16
           0           0           0           0           0           0
           0           0           0           0           0           0
           0           0           0           0
Nuclear spins                              I   N=          16
           0           0           2           0           2           0
           0           2           0           2           2           1
           1           1           1           1
Nuclear ZEff                               R   N=          16
 -5.60000000E+00 -3.60000000E+00 -4.55000000E+00 -3.60000000E+00 -4.55000000E+00
 -3.60000000E+00 -3.60000000E+00 -4.55000000E+00 -3.60000000E+00 -4.55000000E+00
 -4.55000000E+00 -1.00000000E+00 -1.00000000E+00 -1.00000000E+00 -1.00000000E+00
 -1.00000000E+00
Nuclear QMom                               R   N=          16
  0.00000000E+00  0.00000000E+00  2.04400000E+00  0.00000000E+00  2.04400000E+00
  0.00000000E+00  0.00000000E+00  2.04400000E+00  0.00000000E+00  2.04400000E+00
  2.04400000E+00  0.00000000E+00  0.00000000E+00  0.00000000E+00  0.00000000E+00
  0.00000000E+00
Nuclear GFac                               R   N=          16
  0.00000000E+00  0.00000000E+00  4.03761000E-01  0.00000000E+00  4.03761000E-01
  0.00000000E+00  0.00000000E+00  4.03761000E-01  0.00000000E+00  4.03761000E-01
  4.03761000E-01  2.79284600E+00  2.79284600E+00  2.79284600E+00  2.79284600E+00
  2.79284600E+00
MicOpt                                     I   N=          16
          -1          -1          -1          -1          -1          -1
          -1          -1          -1          -1          -1          -1
          -1          -1          -1          -1
Number of contracted shells                I               54
Number of primitive shells                 I              141
Pure/Cartesian d shells                    I                1
Pure/Cartesian f shells                    I                0
Highest angular momentum                   I                2
Largest degree of contraction              I                6
Shell types                                I   N=          54
           0          -1          -1           2           0          -1
          -1           2           0          -1          -1           2
           0          -1          -1           2           0          -1
          -1           2           0          -1          -1           2
           0          -1          -1           2           0          -1
          -1           2           0          -1          -1           2
           0          -1          -1           2           0          -1
          -1           2           0           0           0           0
           0           0           0           0           0           0
Number of primitives per shell             I   N=          54
           6           3           1           1           6           3
           1           1           6           3           1           1
           6           3           1           1           6           3
           1           1           6           3           1           1
           6           3           1           1           6           3
           1           1           6           3           1           1
           6           3           1           1           6           3
           1           1           3           1           3           1
           3           1           3           1           3           1
Shell to atom map                          I   N=          54
           1           1           1           1           2           2
           2           2           3           3           3           3
           4           4           4           4           5           5
           5           5           6           6           6           6
           7           7           7           7           8           8
           8           8           9           9           9           9
          10          10          10          10          11          11
          11          11          12          12          13          13
          14          14          15          15          16          16
Primitive exponents                        R   N=         141
  5.48467166E+03  8.25234946E+02  1.88046958E+02  5.29645000E+01  1.68975704E+01
  5.79963534E+00  1.55396162E+01  3.59993359E+00  1.01376175E+00  2.70005823E-01
  8.00000000E-01  3.04752488E+03  4.57369518E+02  1.03948685E+02  2.92101553E+01
  9.28666296E+00  3.16392696E+00  7.86827235E+00  1.88128854E+00  5.44249258E-01
  1.68714478E-01  8.00000000E-01  4.17351146E+03  6.27457911E+02  1.42902093E+02
  4.02343293E+01  1.28202129E+01  4.39043701E+00  1.16263619E+01  2.71627981E+00
  7.72218397E-01  2.12031498E-01  8.00000000E-01  3.04752488E+03  4.57369518E+02
  1.03948685E+02  2.92101553E+01  9.28666296E+00  3.16392696E+00  7.86827235E+00
  1.88128854E+00  5.44249258E-01  1.68714478E-01  8.00000000E-01  4.17351146E+03
  6.27457911E+02  1.42902093E+02  4.02343293E+01  1.28202129E+01  4.39043701E+00
  1.16263619E+01  2.71627981E+00  7.72218397E-01  2.12031498E-01  8.00000000E-01
  3.04752488E+03  4.57369518E+02  1.03948685E+02  2.92101553E+01  9.28666296E+00
  3.16392696E+00  7.86827235E+00  1.88128854E+00  5.44249258E-01  1.68714478E-01
  8.00000000E-01  3.04752488E+03  4.57369518E+02  1.03948685E+02  2.92101553E+01
  9.28666296E+00  3.16392696E+00  7.86827235E+00  1.88128854E+00  5.44249258E-01
  1.68714478E-01  8.00000000E-01  4.17351146E+03  6.27457911E+02  1.42902093E+02
  4.02343293E+01  1.28202129E+01  4.39043701E+00  1.16263619E+01  2.71627981E+00
  7.72218397E-01  2.12031498E-01  8.00000000E-01  3.04752488E+03  4.57369518E+02
  1.03948685E+02  2.92101553E+01  9.28666296E+00  3.16392696E+00  7.86827235E+00
  1.88128854E+00  5.44249258E-01  1.68714478E-01  8.00000000E-01  4.17351146E+03
  6.27457911E+02  1.42902093E+02  4.02343293E+01  1.28202129E+01  4.39043701E+00
  1.16263619E+01  2.71627981E+00  7.72218397E-01  2.12031498E-01  8.00000000E-01
  4.17351146E+03  6.27457911E+02  1.42902093E+02  4.02343293E+01  1.28202129E+01
  4.39043701E+00  1.16263619E+01  2.71627981E+00  7.72218397E-01  2.12031498E-01
  8.00000000E-01  1.87311370E+01  2.82539436E+00  6.40121692E-01  1.61277759E-01
  1.87311370E+01  2.82539436E+00  6.40121692E-01  1.61277759E-01  1.87311370E+01
  2.82539436E+00  6.40121692E-01  1.61277759E-01  1.87311370E+01  2.82539436E+00
  6.40121692E-01  1.61277759E-01  1.87311370E+01  2.82539436E+00  6.40121692E-01
  1.61277759E-01
Contraction coefficients                   R   N=         141
  1.83107443E-03  1.39501722E-02  6.84450781E-02  2.32714336E-01  4.70192898E-01
  3.58520853E-01 -1.10777550E-01 -1.48026263E-01  1.13076702E+00  1.00000000E+00
  1.00000000E+00  1.83473713E-03  1.40373228E-02  6.88426223E-02  2.32184443E-01
  4.67941348E-01  3.62311985E-01 -1.19332420E-01 -1.60854152E-01  1.14345644E+00
  1.00000000E+00  1.00000000E+00  1.83477216E-03  1.39946270E-02  6.85865518E-02
  2.32240873E-01  4.69069948E-01  3.60455199E-01 -1.14961182E-01 -1.69117479E-01
  1.14585195E+00  1.00000000E+00  1.00000000E+00  1.83473713E-03  1.40373228E-02
  6.88426223E-02  2.32184443E-01  4.67941348E-01  3.62311985E-01 -1.19332420E-01
 -1.60854152E-01  1.14345644E+00  1.00000000E+00  1.00000000E+00  1.83477216E-03
  1.39946270E-02  6.85865518E-02  2.32240873E-01  4.69069948E-01  3.60455199E-01
 -1.14961182E-01 -1.69117479E-01  1.14585195E+00  1.00000000E+00  1.00000000E+00
  1.83473713E-03  1.40373228E-02  6.88426223E-02  2.32184443E-01  4.67941348E-01
  3.62311985E-01 -1.19332420E-01 -1.60854152E-01  1.14345644E+00  1.00000000E+00
  1.00000000E+00  1.83473713E-03  1.40373228E-02  6.88426223E-02  2.32184443E-01
  4.67941348E-01  3.62311985E-01 -1.19332420E-01 -1.60854152E-01  1.14345644E+00
  1.00000000E+00  1.00000000E+00  1.83477216E-03  1.39946270E-02  6.85865518E-02
  2.32240873E-01  4.69069948E-01  3.60455199E-01 -1.14961182E-01 -1.69117479E-01
  1.14585195E+00  1.00000000E+00  1.00000000E+00  1.83473713E-03  1.40373228E-02
  6.88426223E-02  2.32184443E-01  4.67941348E-01  3.62311985E-01 -1.19332420E-01
 -1.60854152E-01  1.14345644E+00  1.00000000E+00  1.00000000E+00  1.83477216E-03
  1.39946270E-02  6.85865518E-02  2.32240873E-01  4.69069948E-01  3.60455199E-01
 -1.14961182E-01 -1.69117479E-01  1.14585195E+00  1.00000000E+00  1.00000000E+00
  1.83477216E-03  1.39946270E-02  6.85865518E-02  2.32240873E-01  4.69069948E-01
  3.60455199E-01 -1.14961182E-01 -1.69117479E-01  1.14585195E+00  1.00000000E+00
  1.00000000E+00  3.34946043E-02  2.34726953E-01  8.13757326E-01  1.00000000E+00
  3.34946043E-02  2.34726953E-01  8.13757326E-01  1.00000000E+00  3.34946043E-02
  2.34726953E-01  8.13757326E-01  1.00000000E+00  3.34946043E-02  2.34726953E-01
  8.13757326E-01  1.00000000E+00  3.34946043E-02  2.34726953E-01  8.13757326E-01
  1.00000000E+00
P(S=P) Contraction coefficients            R   N=         141
  0.00000000E+00  0.00000000E+00  0.00000000E+00  0.00000000E+00  0.00000000E+00
  0.00000000E+00  7.08742682E-02  3.39752839E-01  7.27158577E-01  1.00000000E+00
  0.00000000E+00  0.00000000E+00  0.00000000E+00  0.00000000E+00  0.00000000E+00
  0.00000000E+00  0.00000000E+00  6.89990666E-02  3.16423961E-01  7.44308291E-01
  1.00000000E+00  0.00000000E+00  0.00000000E+00  0.00000000E+00  0.00000000E+00
  0.00000000E+00  0.00000000E+00  0.00000000E+00  6.75797439E-02  3.23907296E-01
  7.40895140E-01  1.00000000E+00  0.00000000E+00  0.00000000E+00  0.00000000E+00
  0.00000000E+00  0.00000000E+00  0.00000000E+00  0.00000000E+00  6.89990666E-02
  3.16423961E-01  7.44308291E-01  1.00000000E+00  0.00000000E+00  0.00000000E+00
  0.00000000E+00  0.00000000E+00  0.00000000E+00  0.00000000E+00  0.00000000E+00
  6.75797439E-02  3.23907296E-01  7.40895140E-01  1.00000000E+00  0.00000000E+00
  0.00000000E+00  0.00000000E+00  0.00000000E+00  0.00000000E+00  0.00000000E+00
  0.00000000E+00  6.89990666E-02  3.16423961E-01  7.44308291E-01  1.00000000E+00
  0.00000000E+00  0.00000000E+00  0.00000000E+00  0.00000000E+00  0.00000000E+00
  0.00000000E+00  0.00000000E+00  6.89990666E-02  3.16423961E-01  7.44308291E-01
  1.00000000E+00  0.00000000E+00  0.00000000E+00  0.00000000E+00  0.00000000E+00
  0.00000000E+00  0.00000000E+00  0.00000000E+00  6.75797439E-02  3.23907296E-01
  7.40895140E-01  1.00000000E+00  0.00000000E+00  0.00000000E+00  0.00000000E+00
  0.00000000E+00  0.00000000E+00  0.00000000E+00  0.00000000E+00  6.89990666E-02
  3.16423961E-01  7.44308291E-01  1.00000000E+00  0.00000000E+00  0.00000000E+00
  0.00000000E+00  0.00000000E+00  0.00000000E+00  0.00000000E+00  0.00000000E+00
  6.75797439E-02  3.23907296E-01  7.40895140E-01  1.00000000E+00  0.00000000E+00
  0.00000000E+00  0.00000000E+00  0.00000000E+00  0.00000000E+00  0.00000000E+00
  0.00000000E+00  6.75797439E-02  3.23907296E-01  7.40895140E-01  1.00000000E+00
  0.00000000E+00  0.00000000E+00  0.00000000E+00  0.00000000E+00  0.00000000E+00
  0.00000000E+00  0.00000000E+00  0.00000000E+00  0.00000000E+00  0.00000000E+00
  0.00000000E+00  0.00000000E+00  0.00000000E+00  0.00000000E+00  0.00000000E+00
  0.00000000E+00  0.00000000E+00  0.00000000E+00  0.00000000E+00  0.00000000E+00
  0.00000000E+00
Coordinates of each shell                  R   N=         162
  3.33309568E-01  5.09675176E+00 -1.63987284E-02  3.33309568E-01  5.09675176E+00
 -1.63987284E-02  3.33309568E-01  5.09675176E+00 -1.63987284E-02  3.33309568E-01
  5.09675176E+00 -1.63987284E-02  3.94736979E-01  2.78279156E+00  7.97684896E-03
  3.94736979E-01  2.78279156E+00  7.97684896E-03  3.94736979E-01  2.78279156E+00
  7.97684896E-03  3.94736979E-01  2.78279156E+00  7.97684896E-03  2.77021720E+00
  1.49415893E+00 -9.61461161E-03  2.77021720E+00  1.49415893E+00 -9.61461161E-03
  2.77021720E+00  1.49415893E+00 -9.61461161E-03  2.77021720E+00  1.49415893E+00
 -9.61461161E-03  3.15511848E+00 -1.07100257E+00  3.44150624E-03  3.15511848E+00
 -1.07100257E+00  3.44150624E-03  3.15511848E+00 -1.07100257E+00  3.44150624E-03
  3.15511848E+00 -1.07100257E+00  3.44150624E-03  1.33049528E+00 -2.74604634E+00
  2.09800545E-02  1.33049528E+00 -2.74604634E+00  2.09800545E-02  1.33049528E+00
 -2.74604634E+00  2.09800545E-02  1.33049528E+00 -2.74604634E+00  2.09800545E-02
 -9.91594511E-01 -1.61894562E+00 -7.01245872E-03 -9.91594511E-01 -1.61894562E+00
 -7.01245872E-03 -9.91594511E-01 -1.61894562E+00 -7.01245872E-03 -9.91594511E-01
 -1.61894562E+00 -7.01245872E-03 -1.61304226E+00  9.40217897E-01  2.87619467E-02
 -1.61304226E+00  9.40217897E-01  2.87619467E-02 -1.61304226E+00  9.40217897E-01
  2.87619467E-02 -1.61304226E+00  9.40217897E-01  2.87619467E-02 -4.19121451E+00
  1.29896732E+00  2.51941438E-02 -4.19121451E+00  1.29896732E+00  2.51941438E-02
 -4.19121451E+00  1.29896732E+00  2.51941438E-02 -4.19121451E+00  1.29896732E+00
  2.51941438E-02 -5.11760553E+00 -1.02490449E+00  6.76836910E-04 -5.11760553E+00
 -1.02490449E+00  6.76836910E-04 -5.11760553E+00 -1.02490449E+00  6.76836910E-04
 -5.11760553E+00 -1.02490449E+00  6.76836910E-04 -3.26963103E+00 -2.85023067E+00
 -1.42198742E-02 -3.26963103E+00 -2.85023067E+00 -1.42198742E-02 -3.26963103E+00
 -2.85023067E+00 -1.42198742E-02 -3.26963103E+00 -2.85023067E+00 -1.42198742E-02
  5.64976105E+00 -1.85631419E+00 -1.50941560E-01  5.64976105E+00 -1.85631419E+00
 -1.50941560E-01  5.64976105E+00 -1.85631419E+00 -1.50941560E-01  5.64976105E+00
 -1.85631419E+00 -1.50941560E-01  4.27795977E+00  2.67214238E+00 -1.98160147E-01
  4.27795977E+00  2.67214238E+00 -1.98160147E-01 -7.10697693E+00 -1.50015169E+00
 -6.72522035E-03 -7.10697693E+00 -1.50015169E+00 -6.72522035E-03 -3.50124912E+00
 -4.75106839E+00 -4.04889572E-02 -3.50124912E+00 -4.75106839E+00 -4.04889572E-02
  5.78786789E+00 -3.74919050E+00  1.28456339E-01  5.78786789E+00 -3.74919050E+00
  1.28456339E-01  6.88284705E+00 -8.78431958E-01  9.45252665E-01  6.88284705E+00
 -8.78431958E-01  9.45252665E-01
Constraint Structure                       R   N=          48
  3.33309568E-01  5.09675176E+00 -1.63987284E-02  3.94736979E-01  2.78279156E+00
  7.97684896E-03  2.77021720E+00  1.49415893E+00 -9.61461161E-03  3.15511848E+00
 -1.07100257E+00  3.44150624E-03  1.33049528E+00 -2.74604634E+00  2.09800545E-02
 -9.91594511E-01 -1.61894562E+00 -7.01245872E-03 -1.61304226E+00  9.40217897E-01
  2.87619467E-02 -4.19121451E+00  1.29896732E+00  2.51941438E-02 -5.11760553E+00
 -1.02490449E+00  6.76836910E-04 -3.26963103E+00 -2.85023067E+00 -1.42198742E-02
  5.64976105E+00 -1.85631419E+00 -1.50941560E-01  4.27795977E+00  2.67214238E+00
 -1.98160147E-01 -7.10697693E+00 -1.50015169E+00 -6.72522035E-03 -3.50124912E+00
 -4.75106839E+00 -4.04889572E-02  5.78786789E+00 -3.74919050E+00  1.28456339E-01
  6.88284705E+00 -8.78431958E-01  9.45252665E-01
Num ILSW                                   I              100
ILSW                                       I   N=         100
           0           1           0           0           2           0
           0           0           0           0           0          -1
           0           0           0           0           0           0
           0           0           0           0           1           0
           1           0           0           0           0           0
           0           0      100000           0          -1           0
           0           0           0           0           0           0
           0           0           0           1           1           0
           0           0           1           0           0           0
           0           0           4          40           0           0
           0           0           0           0           0           0
           0           0           0           0           0           0
           0           0           0           0           0           0
           0           0           0           0           0           0
           0           0           0           0           0           0
           0           0           0           0           0           0
           0           0           0           0
Num RLSW                                   I               40
RLSW                                       R   N=          40
  1.00000000E+00  1.00000000E+00  1.00000000E+00  1.00000000E+00  1.00000000E+00
  0.00000000E+00  0.00000000E+00  1.00000000E+00  0.00000000E+00  0.00000000E+00
  0.00000000E+00  0.00000000E+00  1.00000000E+00  0.00000000E+00  0.00000000E+00
  0.00000000E+00  0.00000000E+00  1.00000000E+00  0.00000000E+00  0.00000000E+00
  0.00000000E+00  0.00000000E+00  1.00000000E+00  0.00000000E+00  0.00000000E+00
  0.00000000E+00  0.00000000E+00  1.00000000E+00  0.00000000E+00  0.00000000E+00
  0.00000000E+00  0.00000000E+00  0.00000000E+00  0.00000000E+00  0.00000000E+00
  0.00000000E+00  0.00000000E+00  0.00000000E+00  1.00000000E+00  1.00000000E+00
MxBond                                     I                3
NBond                                      I   N=          16
           1           3           3           3           2           3
           3           2           3           3           3           1
           1           1           1           1
IBond                                      I   N=          48
           2           0           0           1           3           7
           2           4          12           3           5          11
           4           6           0           5           7          10
           2           6           8           7           9           0
           8          10          13           6           9          14
           4          15          16           3           0           0
           9           0           0          10           0           0
          11           0           0          11           0           0
RBond                                      R   N=          48
  2.00000000E+00  0.00000000E+00  0.00000000E+00  2.00000000E+00  1.00000000E+00
  1.00000000E+00  1.00000000E+00  1.00000000E+00  1.00000000E+00  1.00000000E+00
  1.50000000E+00  1.00000000E+00  1.50000000E+00  1.50000000E+00  0.00000000E+00
  1.50000000E+00  1.50000000E+00  1.00000000E+00  1.00000000E+00  1.50000000E+00
  1.00000000E+00  1.00000000E+00  1.50000000E+00  0.00000000E+00  1.50000000E+00
  1.00000000E+00  1.00000000E+00  1.00000000E+00  1.00000000E+00  1.00000000E+00
  1.00000000E+00  1.00000000E+00  1.00000000E+00  1.00000000E+00  0.00000000E+00
  0.00000000E+00  1.00000000E+00  0.00000000E+00  0.00000000E+00  1.00000000E+00
  0.00000000E+00  0.00000000E+00  1.00000000E+00  0.00000000E+00  0.00000000E+00
  1.00000000E+00  0.00000000E+00  0.00000000E+00
Virial Ratio                               R      2.003087891753357E+00
SCF Energy                                 R     -5.393859966543533E+02
MP2 Energy                                 R     -5.409960546313723E+02
Total Energy                               R     -5.409960546313723E+02
Post-SCF wavefunction norm                 R      1.746223614306792E+00
RMS Force                                  R      8.452060898655946E-07
RMS Density                                R      9.854489634026507E-10
External E-field                           R   N=          35
  0.00000000E+00  0.00000000E+00  0.00000000E+00  0.00000000E+00  0.00000000E+00
  0.00000000E+00  0.00000000E+00  0.00000000E+00  0.00000000E+00  0.00000000E+00
  0.00000000E+00  0.00000000E+00  0.00000000E+00  0.00000000E+00  0.00000000E+00
  0.00000000E+00  0.00000000E+00  0.00000000E+00  0.00000000E+00  0.00000000E+00
  0.00000000E+00  0.00000000E+00  0.00000000E+00  0.00000000E+00  0.00000000E+00
  0.00000000E+00  0.00000000E+00  0.00000000E+00  0.00000000E+00  0.00000000E+00
  0.00000000E+00  0.00000000E+00  0.00000000E+00  0.00000000E+00  0.00000000E+00
IOpCl                                      I                0
IROHF                                      I                0
Alpha Orbital Energies                     R   N=         175
 -2.05279453E+01 -1.56385313E+01 -1.56353115E+01 -1.56144213E+01 -1.55745426E+01
 -1.55644494E+01 -1.13990457E+01 -1.13684364E+01 -1.13252233E+01 -1.13116602E+01
 -1.12488115E+01 -1.39052923E+00 -1.35736426E+00 -1.33332621E+00 -1.21835059E+00
 -1.21542664E+00 -1.17433784E+00 -1.02860329E+00 -9.03910468E-01 -8.82335212E-01
 -8.41103630E-01 -7.96075075E-01 -7.37976040E-01 -7.26819620E-01 -6.97788417E-01
 -6.69651842E-01 -6.50952638E-01 -6.29462637E-01 -6.07798909E-01 -5.96449380E-01
 -5.91348959E-01 -5.41950481E-01 -4.93936235E-01 -4.55849719E-01 -4.36761987E-01
 -4.26271121E-01 -4.25622896E-01 -4.04733965E-01 -2.96278616E-01  1.37315889E-01
  1.52842511E-01  1.93456971E-01  2.09923483E-01  2.17169626E-01  2.44160620E-01
  2.68717414E-01  2.82754728E-01  3.68412970E-01  3.71548159E-01  3.95864680E-01
  4.10742141E-01  4.33328662E-01  4.77273544E-01  4.93478849E-01  4.99832479E-01
  5.24964850E-01  5.70184558E-01  5.85389019E-01  6.55434703E-01  6.92219368E-01
  7.14786374E-01  7.35340091E-01  7.67709252E-01  7.71034418E-01  7.88131693E-01
  8.08708663E-01  8.15408936E-01  8.42076728E-01  8.52202747E-01  8.66272787E-01
  8.84862087E-01  9.22309553E-01  9.39403867E-01  9.64533150E-01  9.68250996E-01
  9.76609905E-01  9.86390668E-01  1.00365000E+00  1.03058754E+00  1.03499471E+00
  1.05156220E+00  1.06903035E+00  1.09731325E+00  1.11181889E+00  1.12905858E+00
  1.13838820E+00  1.15059289E+00  1.15814544E+00  1.17311174E+00  1.18095527E+00
  1.19354881E+00  1.22121220E+00  1.28513121E+00  1.30250715E+00  1.31066876E+00
  1.35030332E+00  1.38141740E+00  1.42653101E+00  1.44608149E+00  1.47561849E+00
  1.53905246E+00  1.56023426E+00  1.57931542E+00  1.58994658E+00  1.60366791E+00
  1.61283140E+00  1.66256498E+00  1.66543187E+00  1.70300445E+00  1.71794098E+00
  1.73405424E+00  1.77239308E+00  1.78934383E+00  1.82727038E+00  1.83800421E+00
  1.95184923E+00  2.00477234E+00  2.01847476E+00  2.06847582E+00  2.07573703E+00
  2.11884332E+00  2.12686015E+00  2.15153736E+00  2.17790526E+00  2.21912409E+00
  2.24686430E+00  2.27592095E+00  2.28674613E+00  2.31980493E+00  2.36772570E+00
  2.39667202E+00  2.43897965E+00  2.44462253E+00  2.48847312E+00  2.51466028E+00
  2.52320341E+00  2.53274747E+00  2.56370212E+00  2.58076859E+00  2.65441434E+00
  2.67663523E+00  2.71609692E+00  2.73435798E+00  2.79964552E+00  2.80482150E+00
  2.82193018E+00  2.87056873E+00  2.87637989E+00  2.88965849E+00  2.91447611E+00
  3.00421063E+00  3.03735549E+00  3.04859593E+00  3.06841688E+00  3.07148519E+00
  3.13593430E+00  3.21486847E+00  3.25208279E+00  3.34402233E+00  3.35416505E+00
  3.38812647E+00  3.52376855E+00  3.66177600E+00  3.80902366E+00  4.22844248E+00
  4.36029258E+00  4.39881289E+00  4.48274246E+00  4.58776140E+00  4.62694911E+00
  4.68590723E+00  4.75286053E+00  4.80613002E+00  4.99657712E+00  5.25365225E+00
Alpha MO coefficients                      R   N=       30625
  9.94689940E-01  2.09537170E-02  1.02723226E-04 -1.59522548E-03  1.59592930E-05
  4.65512653E-03  1.62908970E-05 -9.89331741E-06  4.90097277E-07 -3.92544538E-03
 -3.61260941E-03 -4.11448157E-03 -1.96528658E-05 -1.24590701E-06 -6.20127602E-06
 -9.79087513E-06  5.07845722E-04  1.68562776E-05 -3.31543097E-05  6.16772036E-07
 -4.38601939E-04 -1.80434659E-04 -6.63098338E-04  7.36743731E-06 -5.53206407E-05
 -8.59145333E-04 -5.16189733E-05  2.47930844E-06 -6.97384492E-08  9.87855439E-06
 -1.05313242E-05 -3.30046114E-05  2.96638309E-05 -3.44335264E-05  6.16627917E-09
  1.31699598E-04 -1.31316778E-04  1.26051977E-04 -5.25045682E-08  2.60800507E-05
 -9.34573842E-05 -4.94857636E-05  5.35357818E-05 -2.09798479E-06 -6.40425022E-07
  4.30136785E-06  1.37451418E-05 -8.86769468E-06  3.55591548E-05  1.04043413E-07
 -2.85394874E-05  3.11929135E-04  4.19871338E-05 -9.30098424E-06 -3.61496009E-06
  4.54596697E-05  9.00621868E-06  1.01995363E-05 -5.92962240E-07 -1.75095486E-07
 -6.90958873E-06 -2.71786877E-05 -2.51281243E-06  1.96059252E-06 -1.06503099E-07
  3.20989354E-04  2.06582021E-05  1.18175914E-04  1.10986212E-06 -3.46766232E-05
  9.25052520E-07 -1.14033443E-05 -3.74899097E-06 -8.05209459E-08  1.89283445E-07
  1.75593005E-06  2.01662625E-05 -4.67481067E-06  1.64086808E-05  2.60235525E-07
 -1.18117005E-04 -1.23169849E-04 -9.32149301E-05 -1.79941243E-06 -7.32914604E-08
  3.24875657E-06  3.94439402E-06 -2.86061055E-05 -5.10801440E-07  3.92407643E-07
  2.68975063E-06 -1.95985782E-05  1.81548859E-05  8.26161867E-06  4.13113354E-09
 -2.41367601E-04  2.26588549E-05 -1.37575534E-04  2.12721296E-07  1.32421245E-04
 -5.31131165E-05 -9.79724361E-06  2.07859040E-05 -6.40929689E-07  2.96835380E-07
 -6.16232213E-06 -2.52787996E-05 -2.15791421E-05  9.66634111E-06 -1.85432227E-07
  1.86926964E-04  3.11746161E-05 -2.28353433E-05 -1.12173933E-08 -3.98786049E-05
 -2.07870917E-06 -1.10284649E-05  2.89425948E-05 -1.80788561E-07  1.83113496E-07
  1.86828678E-07  2.27151995E-06 -2.55949310E-06 -9.20830330E-06 -8.62057465E-08
 -7.62430789E-05 -4.72202769E-05 -2.18755643E-05 -5.76691650E-07  6.85852267E-07
 -1.03708493E-05  2.32509772E-06 -1.68254734E-06 -4.68524374E-08 -1.85629982E-07
  1.46148180E-06  6.07931398E-06  2.89203552E-06 -2.13206655E-07 -5.98740455E-08
 -5.99207585E-05 -3.45516542E-05  7.78750272E-06  3.83704071E-07  8.90573272E-06
 -1.63487727E-06  3.69442415E-06 -1.31824558E-06 -1.41234054E-08 -8.98449700E-08
  5.23094451E-06  2.20300049E-05 -2.26249922E-06 -1.98104716E-06  4.70562449E-07
 -2.21413073E-04  7.41424485E-05 -3.14886018E-05 -9.05449677E-06  9.15943597E-06
  7.61121888E-06  1.12289347E-05  3.15096622E-06 -2.61215431E-07 -4.68535413E-07
 -7.83689110E-06 -1.94978955E-05 -1.19040319E-06 -1.42036403E-05  5.91544912E-06
  1.30588647E-06  7.06216203E-06  3.00439421E-06  3.81070497E-06 -2.51245701E-06
 -9.83824469E-06 -4.74984190E-05  6.36722986E-06 -1.50956911E-06 -9.62609288E-07
  3.23167705E-04 -7.72536244E-05 -1.25955760E-04  6.34315972E-06 -3.89465034E-05
 -2.57582081E-06 -2.58823343E-05  6.24681824E-06  1.24298133E-07 -1.10588778E-06
 -4.38851484E-06  1.16395131E-05  3.75473707E-05  2.31889970E-05  1.44571334E-06