
    -----------------------------------------------------------------------
          Psi4: An Open-Source Ab Initio Electronic Structure Package
                               Psi4 1.4a3.dev225 

                         Git: Rev {master} 7105e37 


    D. G. A. Smith, L. A. Burns, A. C. Simmonett, R. M. Parrish,
    M. C. Schieber, R. Galvelis, P. Kraus, H. Kruse, R. Di Remigio,
    A. Alenaizan, A. M. James, S. Lehtola, J. P. Misiewicz, M. Scheurer,
    R. A. Shaw, J. B. Schriber, Y. Xie, Z. L. Glick, D. A. Sirianni,
    J. S. O'Brien, J. M. Waldrop, A. Kumar, E. G. Hohenstein,
    B. P. Pritchard, B. R. Brooks, H. F. Schaefer III, A. Yu. Sokolov,
    K. Patkowski, A. E. DePrince III, U. Bozkaya, R. A. King,
    F. A. Evangelista, J. M. Turney, T. D. Crawford, C. D. Sherrill,
    J. Chem. Phys. 152(18) 184108 (2020). https://doi.org/10.1063/5.0006002

                            Additional Code Authors
    E. T. Seidl, C. L. Janssen, E. F. Valeev, M. L. Leininger,
    J. F. Gonthier, R. M. Richard, H. R. McAlexander, M. Saitow, X. Wang,
    P. Verma, and M. H. Lechner

             Previous Authors, Complete List of Code Contributors,
                       and Citations for Specific Modules
    https://github.com/psi4/psi4/blob/master/codemeta.json
    https://github.com/psi4/psi4/graphs/contributors
    http://psicode.org/psi4manual/master/introduction.html#citing-psifour

    -----------------------------------------------------------------------


    Psi4 started on: Thursday, 01 April 2021 01:29AM

    Process ID: 231765
    Host:       c422-131.stampede2.tacc.utexas.edu
    PSIDATADIR: /home1/07844/xy3866/miniconda3/envs/p4env/share/psi4
    Memory:     500.0 MiB
    Threads:    8
    
  ==> Input File <==

--------------------------------------------------------------------------
#psi4
#
memory 32 gb

molecule  {
0 1
  O       -1.7104100     0.5323320    -0.0000080
  O        1.7104100    -0.5323320    -0.0000010
  C       -0.6421510    -0.4001880    -0.0000140
  C        0.6421510     0.4001890    -0.0000170
  C       -2.9687670    -0.1207390     0.0000150
  C        2.9687670     0.1207390     0.0000180
  H       -0.6784440    -1.0464640     0.8895520
  H       -0.6784560    -1.0464630    -0.8895800
  H        0.6800924     1.0758457     0.9299722
  H        0.6784570     1.0464550    -0.8895890
  H       -3.7295280     0.6607040     0.0000130
  H       -3.0932130    -0.7493130     0.8923640
  H       -3.0932330    -0.7493380    -0.8923130
  H        3.0932340     0.7493310    -0.8923150
  H        3.7295280    -0.6607040     0.0000230
  H        3.0932120     0.7493200     0.8923620
units angstrom
no_reorient  #important for SAPT in psi4, default
symmetry c1  #important for SAPT in psi4, default
}

set PROPERTIES_ORIGIN ["COM"]
properties('MP2/aug-cc-pvtz', properties = ['dipole'])
--------------------------------------------------------------------------

  Memory set to  29.802 GiB by Python driver.
    SCF Algorithm Type (re)set to DF.

*** tstart() called on c422-131.stampede2.tacc.utexas.edu
*** at Thu Apr  1 01:29:24 2021

   => Loading Basis Set <=

    Name: AUG-CC-PVTZ
    Role: ORBITAL
    Keyword: BASIS
    atoms 1-2  entry O          line   331 file /home1/07844/xy3866/miniconda3/envs/p4env/share/psi4/basis/aug-cc-pvtz.gbs 
    atoms 3-6  entry C          line   239 file /home1/07844/xy3866/miniconda3/envs/p4env/share/psi4/basis/aug-cc-pvtz.gbs 
    atoms 7-16 entry H          line    40 file /home1/07844/xy3866/miniconda3/envs/p4env/share/psi4/basis/aug-cc-pvtz.gbs 


         ---------------------------------------------------------
                                   SCF
               by Justin Turney, Rob Parrish, Andy Simmonett
                          and Daniel G. A. Smith
                              RHF Reference
                        8 Threads,  30517 MiB Core
         ---------------------------------------------------------

  ==> Geometry <==

    Molecular point group: c1
    Full point group: C1

    Geometry (in Angstrom), charge = 0, multiplicity = 1:

       Center              X                  Y                   Z               Mass       
    ------------   -----------------  -----------------  -----------------  -----------------
         O           -1.710428456112     0.532003187059    -0.000459725797    15.994914619570
         O            1.710391543888    -0.532660812941    -0.000452725797    15.994914619570
         C           -0.642169456112    -0.400516812941    -0.000465725797    12.000000000000
         C            0.642132543888     0.399860187059    -0.000468725797    12.000000000000
         C           -2.968785456112    -0.121067812941    -0.000436725797    12.000000000000
         C            2.968748543888     0.120410187059    -0.000433725797    12.000000000000
         H           -0.678462456112    -1.046792812941     0.889100274203     1.007825032230
         H           -0.678474456112    -1.046791812941    -0.890031725797     1.007825032230
         H            0.680073943888     1.075516887059     0.929520474203     1.007825032230
         H            0.678438543888     1.046126187059    -0.890040725797     1.007825032230
         H           -3.729546456112     0.660375187059    -0.000438725797     1.007825032230
         H           -3.093231456112    -0.749641812941     0.891912274203     1.007825032230
         H           -3.093251456112    -0.749666812941    -0.892764725797     1.007825032230
         H            3.093215543888     0.749002187059    -0.892766725797     1.007825032230
         H            3.729509543888    -0.661032812941    -0.000428725797     1.007825032230
         H            3.093193543888     0.748991187059     0.891910274203     1.007825032230

  Running in c1 symmetry.

  Rotational constants: A =      0.61943  B =      0.04322  C =      0.04169 [cm^-1]
  Rotational constants: A =  18569.91565  B =   1295.55363  C =   1249.84130 [MHz]
  Nuclear repulsion =  252.401260783311926

  Charge       = 0
  Multiplicity = 1
  Electrons    = 50
  Nalpha       = 25
  Nbeta        = 25

  ==> Algorithm <==

  SCF Algorithm Type is DF.
  DIIS enabled.
  MOM disabled.
  Fractional occupation disabled.
  Guess Type is SAD.
  Energy threshold   = 1.00e-10
  Density threshold  = 1.00e-10
  Integral threshold = 1.00e-12

  ==> Primary Basis <==

  Basis Set: AUG-CC-PVTZ
    Blend: AUG-CC-PVTZ
    Number of shells: 174
    Number of basis functions: 506
    Number of Cartesian functions: 580
    Spherical Harmonics?: true
    Max angular momentum: 3

   => Loading Basis Set <=

    Name: (AUG-CC-PVTZ AUX)
    Role: JKFIT
    Keyword: DF_BASIS_SCF
    atoms 1-2  entry O          line   286 file /home1/07844/xy3866/miniconda3/envs/p4env/share/psi4/basis/aug-cc-pvtz-jkfit.gbs 
    atoms 3-6  entry C          line   162 file /home1/07844/xy3866/miniconda3/envs/p4env/share/psi4/basis/aug-cc-pvtz-jkfit.gbs 
    atoms 7-16 entry H          line    70 file /home1/07844/xy3866/miniconda3/envs/p4env/share/psi4/basis/aug-cc-pvtz-jkfit.gbs 

  ==> Integral Setup <==

  DFHelper Memory: AOs need 1.928 GiB; user supplied 22.352 GiB. Using in-core AOs.

  ==> MemDFJK: Density-Fitted J/K Matrices <==

    J tasked:                   Yes
    K tasked:                   Yes
    wK tasked:                   No
    OpenMP threads:               8
    Memory [MiB]:             22888
    Algorithm:                 Core
    Schwarz Cutoff:           1E-12
    Mask sparsity (%):      10.3939
    Fitting Condition:        1E-10

   => Auxiliary Basis Set <=

  Basis Set: (AUG-CC-PVTZ AUX)
    Blend: AUG-CC-PVTZ-JKFIT
    Number of shells: 320
    Number of basis functions: 1084
    Number of Cartesian functions: 1336
    Spherical Harmonics?: true
    Max angular momentum: 4

  Minimum eigenvalue in the overlap matrix is 8.5766270035E-06.
  Reciprocal condition number of the overlap matrix is 5.0007927142E-07.
    Using symmetric orthogonalization.

  ==> Pre-Iterations <==

  SCF Guess: Superposition of Atomic Densities via on-the-fly atomic UHF (no occupation information).

   -------------------------
    Irrep   Nso     Nmo    
   -------------------------
     A        506     506 
   -------------------------
    Total     506     506
   -------------------------

  ==> Iterations <==

                           Total Energy        Delta E     RMS |[F,P]|

   @DF-RHF iter SAD:  -306.12710977557208   -3.06127e+02   0.00000e+00 
   @DF-RHF iter   1:  -306.93058793057378   -8.03478e-01   1.03856e-03 DIIS
   @DF-RHF iter   2:  -307.07243186859051   -1.41844e-01   4.75364e-04 DIIS
   @DF-RHF iter   3:  -307.09545944585847   -2.30276e-02   1.31204e-04 DIIS
   @DF-RHF iter   4:  -307.09794175360668   -2.48231e-03   3.63805e-05 DIIS
   @DF-RHF iter   5:  -307.09813858834133   -1.96835e-04   6.66592e-06 DIIS
   @DF-RHF iter   6:  -307.09814794944998   -9.36111e-06   1.46015e-06 DIIS
   @DF-RHF iter   7:  -307.09814849733431   -5.47884e-07   3.66193e-07 DIIS
   @DF-RHF iter   8:  -307.09814852581366   -2.84793e-08   1.23196e-07 DIIS
   @DF-RHF iter   9:  -307.09814852914769   -3.33404e-09   3.35256e-08 DIIS
   @DF-RHF iter  10:  -307.09814852949728   -3.49587e-10   1.12371e-08 DIIS
   @DF-RHF iter  11:  -307.09814852952462   -2.73417e-11   4.63282e-09 DIIS
   @DF-RHF iter  12:  -307.09814852952746   -2.84217e-12   7.05299e-10 DIIS
   @DF-RHF iter  13:  -307.09814852952775   -2.84217e-13   1.36997e-10 DIIS
   @DF-RHF iter  14:  -307.09814852952809   -3.41061e-13   4.76203e-11 DIIS
  Energy and wave function converged.


  ==> Post-Iterations <==

    Orbital Energies [Eh]
    ---------------------

    Doubly Occupied:                                                      

       1A    -20.559959     2A    -20.558878     3A    -11.277969  
       4A    -11.272472     5A    -11.271653     6A    -11.271514  
       7A     -1.379500     8A     -1.368002     9A     -1.022991  
      10A     -0.933533    11A     -0.883994    12A     -0.826233  
      13A     -0.685604    14A     -0.665966    15A     -0.653560  
      16A     -0.642322    17A     -0.610231    18A     -0.592990  
      19A     -0.573057    20A     -0.512531    21A     -0.503839  
      22A     -0.489871    23A     -0.474477    24A     -0.426359  
      25A     -0.424733  

    Virtual:                                                              

      26A      0.030834    27A      0.034795    28A      0.041650  
      29A      0.042426    30A      0.051378    31A      0.053679  
      32A      0.057729    33A      0.071345    34A      0.072233  
      35A      0.075983    36A      0.096337    37A      0.102904  
      38A      0.123904    39A      0.124939    40A      0.127288  
      41A      0.132122    42A      0.141800    43A      0.142421  
      44A      0.150394    45A      0.155224    46A      0.156174  
      47A      0.158406    48A      0.170134    49A      0.180199  
      50A      0.184829    51A      0.200604    52A      0.214927  
      53A      0.216906    54A      0.217507    55A      0.221660  
      56A      0.239357    57A      0.253023    58A      0.257060  
      59A      0.268267    60A      0.278594    61A      0.283032  
      62A      0.294232    63A      0.298894    64A      0.309633  
      65A      0.311157    66A      0.318723    67A      0.321405  
      68A      0.330940    69A      0.338256    70A      0.338348  
      71A      0.342756    72A      0.343735    73A      0.347018  
      74A      0.348990    75A      0.359409    76A      0.369846  
      77A      0.373293    78A      0.374716    79A      0.383609  
      80A      0.390451    81A      0.394792    82A      0.397727  
      83A      0.398842    84A      0.418084    85A      0.418455  
      86A      0.426086    87A      0.427361    88A      0.429547  
      89A      0.432608    90A      0.441257    91A      0.454188  
      92A      0.461960    93A      0.469520    94A      0.470875  
      95A      0.475844    96A      0.480305    97A      0.489260  
      98A      0.493125    99A      0.495759   100A      0.498498  
     101A      0.502318   102A      0.506440   103A      0.514081  
     104A      0.515767   105A      0.519162   106A      0.533532  
     107A      0.541269   108A      0.551220   109A      0.555140  
     110A      0.580957   111A      0.581370   112A      0.583549  
     113A      0.585013   114A      0.588196   115A      0.602619  
     116A      0.628342   117A      0.629128   118A      0.634668  
     119A      0.654605   120A      0.675966   121A      0.687533  
     122A      0.692144   123A      0.693431   124A      0.698388  
     125A      0.751230   126A      0.755526   127A      0.760071  
     128A      0.766750   129A      0.774422   130A      0.786538  
     131A      0.800058   132A      0.813195   133A      0.814794  
     134A      0.824337   135A      0.826291   136A      0.829070  
     137A      0.833876   138A      0.836466   139A      0.850354  
     140A      0.853657   141A      0.856839   142A      0.868554  
     143A      0.873954   144A      0.877239   145A      0.892731  
     146A      0.913745   147A      0.914996   148A      0.924001  
     149A      0.926526   150A      0.943097   151A      0.946322  
     152A      0.946944   153A      0.955059   154A      0.960626  
     155A      0.981518   156A      0.986112   157A      0.996702  
     158A      0.997875   159A      1.001904   160A      1.003361  
     161A      1.036400   162A      1.043771   163A      1.049082  
     164A      1.061507   165A      1.062541   166A      1.064884  
     167A      1.069151   168A      1.073366   169A      1.078698  
     170A      1.093133   171A      1.101194   172A      1.116796  
     173A      1.130062   174A      1.130779   175A      1.137802  
     176A      1.141222   177A      1.154331   178A      1.161204  
     179A      1.167307   180A      1.172586   181A      1.176223  
     182A      1.179712   183A      1.180827   184A      1.199257  
     185A      1.205975   186A      1.211960   187A      1.224177  
     188A      1.224807   189A      1.226759   190A      1.235972  
     191A      1.250221   192A      1.266089   193A      1.276546  
     194A      1.286074   195A      1.287129   196A      1.290791  
     197A      1.316369   198A      1.319521   199A      1.324478  
     200A      1.327867   201A      1.363697   202A      1.375531  
     203A      1.385416   204A      1.399276   205A      1.425025  
     206A      1.432004   207A      1.454960   208A      1.469837  
     209A      1.471216   210A      1.476820   211A      1.480528  
     212A      1.502122   213A      1.523216   214A      1.538990  
     215A      1.551095   216A      1.564514   217A      1.580448  
     218A      1.589544   219A      1.594752   220A      1.602327  
     221A      1.605467   222A      1.617556   223A      1.620794  
     224A      1.635046   225A      1.638336   226A      1.646195  
     227A      1.662520   228A      1.663857   229A      1.671994  
     230A      1.676367   231A      1.680063   232A      1.683202  
     233A      1.684311   234A      1.701623   235A      1.715703  
     236A      1.719217   237A      1.729553   238A      1.737609  
     239A      1.742895   240A      1.756441   241A      1.766162  
     242A      1.795862   243A      1.796357   244A      1.800015  
     245A      1.818201   246A      1.827605   247A      1.828405  
     248A      1.867651   249A      1.869427   250A      1.878983  
     251A      1.881000   252A      1.908892   253A      1.922738  
     254A      1.931459   255A      1.935592   256A      1.938572  
     257A      1.951559   258A      1.979101   259A      1.992203  
     260A      2.000783   261A      2.001489   262A      2.032320  
     263A      2.036385   264A      2.059044   265A      2.088083  
     266A      2.107553   267A      2.119333   268A      2.122965  
     269A      2.131249   270A      2.168409   271A      2.174574  
     272A      2.198403   273A      2.207081   274A      2.211354  
     275A      2.214498   276A      2.225175   277A      2.230583  
     278A      2.240118   279A      2.260337   280A      2.307116  
     281A      2.356580   282A      2.362854   283A      2.374707  
     284A      2.396701   285A      2.398832   286A      2.403119  
     287A      2.443930   288A      2.447082   289A      2.465453  
     290A      2.520393   291A      2.560818   292A      2.566183  
     293A      2.602147   294A      2.612441   295A      2.659163  
     296A      2.690439   297A      2.751150   298A      2.773113  
     299A      2.789986   300A      2.792222   301A      2.799344  
     302A      2.825023   303A      2.869207   304A      2.910908  
     305A      2.942503   306A      2.946680   307A      2.982589  
     308A      2.984202   309A      3.032048   310A      3.053182  
     311A      3.074677   312A      3.098833   313A      3.146759  
     314A      3.148293   315A      3.150484   316A      3.167475  
     317A      3.197531   318A      3.214153   319A      3.274710  
     320A      3.283460   321A      3.331682   322A      3.360073  
     323A      3.376547   324A      3.401917   325A      3.441151  
     326A      3.450503   327A      3.467459   328A      3.484563  
     329A      3.503998   330A      3.520464   331A      3.540372  
     332A      3.617706   333A      3.618780   334A      3.633347  
     335A      3.635505   336A      3.650182   337A      3.670664  
     338A      3.670964   339A      3.697455   340A      3.720817  
     341A      3.738676   342A      3.754363   343A      3.766306  
     344A      3.770582   345A      3.784900   346A      3.801534  
     347A      3.809673   348A      3.847274   349A      3.854338  
     350A      3.869775   351A      3.873059   352A      3.892845  
     353A      3.895707   354A      3.906716   355A      3.914897  
     356A      3.951457   357A      3.957918   358A      3.961393  
     359A      3.973384   360A      4.018547   361A      4.024961  
     362A      4.033754   363A      4.040262   364A      4.063105  
     365A      4.092116   366A      4.107026   367A      4.109322  
     368A      4.133532   369A      4.137844   370A      4.163946  
     371A      4.173945   372A      4.175352   373A      4.201091  
     374A      4.204377   375A      4.227057   376A      4.232117  
     377A      4.264464   378A      4.269838   379A      4.288934  
     380A      4.306443   381A      4.313058   382A      4.335939  
     383A      4.347676   384A      4.351462   385A      4.382646  
     386A      4.410747   387A      4.436186   388A      4.463169  
     389A      4.489926   390A      4.559156   391A      4.571064  
     392A      4.591906   393A      4.609279   394A      4.612564  
     395A      4.621237   396A      4.633709   397A      4.655401  
     398A      4.665737   399A      4.678600   400A      4.707200  
     401A      4.721206   402A      4.755815   403A      4.773365  
     404A      4.781849   405A      4.787541   406A      4.798074  
     407A      4.814406   408A      4.820434   409A      4.847116  
     410A      4.860529   411A      4.865474   412A      4.874037  
     413A      4.883114   414A      4.930671   415A      4.960208  
     416A      4.991388   417A      5.013826   418A      5.025566  
     419A      5.032120   420A      5.070047   421A      5.085107  
     422A      5.093480   423A      5.102040   424A      5.117991  
     425A      5.156319   426A      5.166054   427A      5.182527  
     428A      5.202031   429A      5.244817   430A      5.268072  
     431A      5.302120   432A      5.321321   433A      5.339729  
     434A      5.355154   435A      5.374795   436A      5.379323  
     437A      5.395447   438A      5.399451   439A      5.445284  
     440A      5.479805   441A      5.527184   442A      5.572521  
     443A      5.596319   444A      5.600449   445A      5.620517  
     446A      5.627195   447A      5.634148   448A      5.648740  
     449A      5.663023   450A      5.668797   451A      5.698197  
     452A      5.703219   453A      5.750128   454A      5.770901  
     455A      5.925248   456A      5.955091   457A      6.010749  
     458A      6.055790   459A      6.064289   460A      6.065664  
     461A      6.081465   462A      6.088511   463A      6.107104  
     464A      6.167845   465A      6.237185   466A      6.259773  
     467A      6.304341   468A      6.444455   469A      6.601539  
     470A      6.682092   471A      6.693684   472A      6.713246  
     473A      6.715264   474A      6.720676   475A      6.728409  
     476A      6.851079   477A      7.001452   478A      7.015271  
     479A      7.030178   480A      7.070229   481A      7.198701  
     482A      7.224506   483A      7.320320   484A      7.322884  
     485A      7.391099   486A      7.404208   487A      7.497436  
     488A      7.535568   489A      7.633341   490A      7.671604  
     491A      7.711830   492A      7.770486   493A      7.814025  
     494A      7.822512   495A      7.925044   496A      8.022038  
     497A      8.347256   498A      8.380302   499A      8.433526  
     500A      8.443301   501A     15.109057   502A     15.452665  
     503A     17.806942   504A     17.924642   505A     18.155100  
     506A     18.573854  

    Final Occupation by Irrep:
              A 
    DOCC [    25 ]

  @DF-RHF Final Energy:  -307.09814852952809

   => Energetics <=

    Nuclear Repulsion Energy =            252.4012607833119262
    One-Electron Energy =                -919.2343428876270082
    Two-Electron Energy =                 359.7349335747869645
    Total Energy =                       -307.0981485295280891

Computation Completed

*** tstop() called on c422-131.stampede2.tacc.utexas.edu at Thu Apr  1 01:29:53 2021
Module time:
	user time   =     151.63 seconds =       2.53 minutes
	system time =       5.08 seconds =       0.08 minutes
	total time  =         29 seconds =       0.48 minutes
Total time:
	user time   =     151.63 seconds =       2.53 minutes
	system time =       5.08 seconds =       0.08 minutes
	total time  =         29 seconds =       0.48 minutes
   => Loading Basis Set <=

    Name: (AUG-CC-PVTZ AUX)
    Role: RIFIT
    Keyword: DF_BASIS_MP2
    atoms 1-2  entry O          line   264 file /home1/07844/xy3866/miniconda3/envs/p4env/share/psi4/basis/aug-cc-pvtz-ri.gbs 
    atoms 3-6  entry C          line   148 file /home1/07844/xy3866/miniconda3/envs/p4env/share/psi4/basis/aug-cc-pvtz-ri.gbs 
    atoms 7-16 entry H          line    30 file /home1/07844/xy3866/miniconda3/envs/p4env/share/psi4/basis/aug-cc-pvtz-ri.gbs 


*** tstart() called on c422-131.stampede2.tacc.utexas.edu
*** at Thu Apr  1 01:29:53 2021


  //>>>>>>>>>>>>>>>>>>>>>>>>>>>>>>>>>>>//
  //               DFMP2               //
  //<<<<<<<<<<<<<<<<<<<<<<<<<<<<<<<<<<<//

	 --------------------------------------------------------
	                          DF-MP2                         
	      2nd-Order Density-Fitted Moller-Plesset Theory     
	              RMP2 Wavefunction,   8 Threads             
	                                                         
	        Rob Parrish, Justin Turney, Andy Simmonett,      
	           Ed Hohenstein, and C. David Sherrill          
	 --------------------------------------------------------

   => Auxiliary Basis Set <=

  Basis Set: (AUG-CC-PVTZ AUX)
    Blend: AUG-CC-PVTZ-RI
    Number of shells: 308
    Number of basis functions: 1096
    Number of Cartesian functions: 1366
    Spherical Harmonics?: true
    Max angular momentum: 4

	 --------------------------------------------------------
	                 NBF =   506, NAUX =  1096
	 --------------------------------------------------------
	   CLASS    FOCC     OCC    AOCC    AVIR     VIR    FVIR
	   PAIRS       0      25      25     481     481       0
	 --------------------------------------------------------

  DFHelper Memory: AOs need 2.004 GiB; user supplied 22.352 GiB. Using in-core AOs.


         ------------------------------------------------------------
                                     CPHF                           
                                  Rob Parrish                       
         ------------------------------------------------------------

  ==> Geometry <==

    Molecular point group: c1
    Full point group: C1

    Geometry (in Angstrom), charge = 0, multiplicity = 1:

       Center              X                  Y                   Z               Mass       
    ------------   -----------------  -----------------  -----------------  -----------------
         O           -1.710428456112     0.532003187059    -0.000459725797    15.994914619570
         O            1.710391543888    -0.532660812941    -0.000452725797    15.994914619570
         C           -0.642169456112    -0.400516812941    -0.000465725797    12.000000000000
         C            0.642132543888     0.399860187059    -0.000468725797    12.000000000000
         C           -2.968785456112    -0.121067812941    -0.000436725797    12.000000000000
         C            2.968748543888     0.120410187059    -0.000433725797    12.000000000000
         H           -0.678462456112    -1.046792812941     0.889100274203     1.007825032230
         H           -0.678474456112    -1.046791812941    -0.890031725797     1.007825032230
         H            0.680073943888     1.075516887059     0.929520474203     1.007825032230
         H            0.678438543888     1.046126187059    -0.890040725797     1.007825032230
         H           -3.729546456112     0.660375187059    -0.000438725797     1.007825032230
         H           -3.093231456112    -0.749641812941     0.891912274203     1.007825032230
         H           -3.093251456112    -0.749666812941    -0.892764725797     1.007825032230
         H            3.093215543888     0.749002187059    -0.892766725797     1.007825032230
         H            3.729509543888    -0.661032812941    -0.000428725797     1.007825032230
         H            3.093193543888     0.748991187059     0.891910274203     1.007825032230

  Nuclear repulsion =  252.401260783311926
  Reference energy  = -307.098148529528089

  ==> Basis Set <==

  Basis Set: AUG-CC-PVTZ
    Blend: AUG-CC-PVTZ
    Number of shells: 174
    Number of basis functions: 506
    Number of Cartesian functions: 580
    Spherical Harmonics?: true
    Max angular momentum: 3

  ==> CGRSolver (by Rob Parrish) <==

   Number of roots    =         1
   Preconditioning    =    JACOBI
   Convergence cutoff =     1E-06
   Maximum iterations =       100

  ==> CPHFRHamiltonian (by Rob Parrish) <== 

  ==> MemDFJK: Density-Fitted J/K Matrices <==

    J tasked:                   Yes
    K tasked:                   Yes
    wK tasked:                   No
    OpenMP threads:               8
    Memory [MiB]:             22888
    Algorithm:                 Core
    Schwarz Cutoff:           1E-12
    Mask sparsity (%):       6.7233
    Fitting Condition:        1E-10

   => Auxiliary Basis Set <=

  Basis Set: (AUG-CC-PVTZ AUX)
    Blend: AUG-CC-PVTZ-JKFIT
    Number of shells: 320
    Number of basis functions: 1084
    Number of Cartesian functions: 1336
    Spherical Harmonics?: true
    Max angular momentum: 4

  ==> CPHF Iterations <==

  => Iterations <=

             Iter  Converged  Remaining    Residual
  CGR           1          0          1   7.360E-02
  CGR           2          0          1   1.736E-02
  CGR           3          0          1   5.999E-03
  CGR           4          0          1   1.466E-03
  CGR           5          0          1   2.866E-04
  CGR           6          0          1   7.552E-05
  CGR           7          0          1   2.117E-05
  CGR           8          0          1   6.216E-06
  CGR           9          0          1   1.845E-06
  CGR          10          1          0   6.085E-07

    CGRSolver converged.

	-----------------------------------------------------------
	 ==================> DF-MP2 Energies <==================== 
	-----------------------------------------------------------
	 Reference Energy          =    -307.0981485295280891 [Eh]
	 Singles Energy            =      -0.0000000000000000 [Eh]
	 Same-Spin Energy          =      -0.2948235244205504 [Eh]
	 Opposite-Spin Energy      =      -1.0075948044404883 [Eh]
	 Correlation Energy        =      -1.3024183288610387 [Eh]
	 Total Energy              =    -308.4005668583891406 [Eh]
	-----------------------------------------------------------
	 ================> DF-SCS-MP2 Energies <================== 
	-----------------------------------------------------------
	 SCS Same-Spin Scale       =       0.3333333333333333 [-]
	 SCS Opposite-Spin Scale   =       1.2000000000000000 [-]
	 SCS Same-Spin Energy      =      -0.0982745081401835 [Eh]
	 SCS Opposite-Spin Energy  =      -1.2091137653285859 [Eh]
	 SCS Correlation Energy    =      -1.3073882734687694 [Eh]
	 SCS Total Energy          =    -308.4055368029968349 [Eh]
	-----------------------------------------------------------



Properties will be evaluated at  -0.000000,   0.000000,  -0.000000 [a0]

Properties computed using the MP2 density matrix

  Nuclear Dipole Moment: [e a0]
     X:     0.0014      Y:     0.0245      Z:     0.0337

  Electronic Dipole Moment: [e a0]
     X:     0.0007      Y:    -0.0366      Z:    -0.0455

  Dipole Moment: [e a0]
     X:     0.0021      Y:    -0.0121      Z:    -0.0118     Total:     0.0170

  Dipole Moment: [D]
     X:     0.0053      Y:    -0.0308      Z:    -0.0299     Total:     0.0432


*** tstop() called on c422-131.stampede2.tacc.utexas.edu at Thu Apr  1 01:31:27 2021
Module time:
	user time   =     563.30 seconds =       9.39 minutes
	system time =      10.17 seconds =       0.17 minutes
	total time  =         94 seconds =       1.57 minutes
Total time:
	user time   =     715.71 seconds =      11.93 minutes
	system time =      15.27 seconds =       0.25 minutes
	total time  =        123 seconds =       2.05 minutes

    Psi4 stopped on: Thursday, 01 April 2021 01:31AM
    Psi4 wall time for execution: 0:02:03.49

*** Psi4 exiting successfully. Buy a developer a beer!
