
    -----------------------------------------------------------------------
          Psi4: An Open-Source Ab Initio Electronic Structure Package
                               Psi4 1.4a3.dev225 

                         Git: Rev {master} 7105e37 


    D. G. A. Smith, L. A. Burns, A. C. Simmonett, R. M. Parrish,
    M. C. Schieber, R. Galvelis, P. Kraus, H. Kruse, R. Di Remigio,
    A. Alenaizan, A. M. James, S. Lehtola, J. P. Misiewicz, M. Scheurer,
    R. A. Shaw, J. B. Schriber, Y. Xie, Z. L. Glick, D. A. Sirianni,
    J. S. O'Brien, J. M. Waldrop, A. Kumar, E. G. Hohenstein,
    B. P. Pritchard, B. R. Brooks, H. F. Schaefer III, A. Yu. Sokolov,
    K. Patkowski, A. E. DePrince III, U. Bozkaya, R. A. King,
    F. A. Evangelista, J. M. Turney, T. D. Crawford, C. D. Sherrill,
    J. Chem. Phys. 152(18) 184108 (2020). https://doi.org/10.1063/5.0006002

                            Additional Code Authors
    E. T. Seidl, C. L. Janssen, E. F. Valeev, M. L. Leininger,
    J. F. Gonthier, R. M. Richard, H. R. McAlexander, M. Saitow, X. Wang,
    P. Verma, and M. H. Lechner

             Previous Authors, Complete List of Code Contributors,
                       and Citations for Specific Modules
    https://github.com/psi4/psi4/blob/master/codemeta.json
    https://github.com/psi4/psi4/graphs/contributors
    http://psicode.org/psi4manual/master/introduction.html#citing-psifour

    -----------------------------------------------------------------------


    Psi4 started on: Monday, 01 March 2021 10:45AM

    Process ID: 154365
    Host:       c402-103.stampede2.tacc.utexas.edu
    PSIDATADIR: /home1/07844/xy3866/miniconda3/envs/p4env/share/psi4
    Memory:     500.0 MiB
    Threads:    32
    
  ==> Input File <==

--------------------------------------------------------------------------
#psi4
#
memory 32 gb

molecule  {
0 1
  O       -1.7104100     0.5323320    -0.0000080
  O        1.7104100    -0.5323320    -0.0000010
  C       -0.6421510    -0.4001880    -0.0000140
  C        0.6421510     0.4001890    -0.0000170
  C       -2.9687670    -0.1207390     0.0000150
  C        2.9687670     0.1207390     0.0000180
  H       -0.6766808    -1.0150738     0.9116003
  H       -0.6784560    -1.0464630    -0.8895800
  H        0.6784430     1.0464730     0.8895430
  H        0.6784570     1.0464550    -0.8895890
  H       -3.7295280     0.6607040     0.0000130
  H       -3.0932130    -0.7493130     0.8923640
  H       -3.0932330    -0.7493380    -0.8923130
  H        3.0932340     0.7493310    -0.8923150
  H        3.7295280    -0.6607040     0.0000230
  H        3.0932120     0.7493200     0.8923620
units angstrom
no_reorient  #important for SAPT in psi4, default
symmetry c1  #important for SAPT in psi4, default
}

set PROPERTIES_ORIGIN ["COM"]
properties('MP2/aug-cc-pvtz', properties = ['dipole'])
--------------------------------------------------------------------------

  Memory set to  29.802 GiB by Python driver.
    SCF Algorithm Type (re)set to DF.

*** tstart() called on c402-103.stampede2.tacc.utexas.edu
*** at Mon Mar  1 10:45:45 2021

   => Loading Basis Set <=

    Name: AUG-CC-PVTZ
    Role: ORBITAL
    Keyword: BASIS
    atoms 1-2  entry O          line   331 file /home1/07844/xy3866/miniconda3/envs/p4env/share/psi4/basis/aug-cc-pvtz.gbs 
    atoms 3-6  entry C          line   239 file /home1/07844/xy3866/miniconda3/envs/p4env/share/psi4/basis/aug-cc-pvtz.gbs 
    atoms 7-16 entry H          line    40 file /home1/07844/xy3866/miniconda3/envs/p4env/share/psi4/basis/aug-cc-pvtz.gbs 


         ---------------------------------------------------------
                                   SCF
               by Justin Turney, Rob Parrish, Andy Simmonett
                          and Daniel G. A. Smith
                              RHF Reference
                       32 Threads,  30517 MiB Core
         ---------------------------------------------------------

  ==> Geometry <==

    Molecular point group: c1
    Full point group: C1

    Geometry (in Angstrom), charge = 0, multiplicity = 1:

       Center              X                  Y                   Z               Mass       
    ------------   -----------------  -----------------  -----------------  -----------------
         O           -1.710429729488     0.531980612058    -0.000254051032    15.994914619570
         O            1.710390270512    -0.532683387942    -0.000247051032    15.994914619570
         C           -0.642170729488    -0.400539387942    -0.000260051032    12.000000000000
         C            0.642131270512     0.399837612058    -0.000263051032    12.000000000000
         C           -2.968786729488    -0.121090387942    -0.000231051032    12.000000000000
         C            2.968747270512     0.120387612058    -0.000228051032    12.000000000000
         H           -0.676700529488    -1.015425187942     0.911354248968     1.007825032230
         H           -0.678475729488    -1.046814387942    -0.889826051032     1.007825032230
         H            0.678423270512     1.046121612058     0.889296948968     1.007825032230
         H            0.678437270512     1.046103612058    -0.889835051032     1.007825032230
         H           -3.729547729488     0.660352612058    -0.000233051032     1.007825032230
         H           -3.093232729488    -0.749664387942     0.892117948968     1.007825032230
         H           -3.093252729488    -0.749689387942    -0.892559051032     1.007825032230
         H            3.093214270512     0.748979612058    -0.892561051032     1.007825032230
         H            3.729508270512    -0.661055387942    -0.000223051032     1.007825032230
         H            3.093192270512     0.748968612058     0.892115948968     1.007825032230

  Running in c1 symmetry.

  Rotational constants: A =      0.62318  B =      0.04322  C =      0.04170 [cm^-1]
  Rotational constants: A =  18682.40751  B =   1295.67552  C =   1250.25272 [MHz]
  Nuclear repulsion =  252.655929465695294

  Charge       = 0
  Multiplicity = 1
  Electrons    = 50
  Nalpha       = 25
  Nbeta        = 25

  ==> Algorithm <==

  SCF Algorithm Type is DF.
  DIIS enabled.
  MOM disabled.
  Fractional occupation disabled.
  Guess Type is SAD.
  Energy threshold   = 1.00e-10
  Density threshold  = 1.00e-10
  Integral threshold = 1.00e-12

  ==> Primary Basis <==

  Basis Set: AUG-CC-PVTZ
    Blend: AUG-CC-PVTZ
    Number of shells: 174
    Number of basis functions: 506
    Number of Cartesian functions: 580
    Spherical Harmonics?: true
    Max angular momentum: 3

   => Loading Basis Set <=

    Name: (AUG-CC-PVTZ AUX)
    Role: JKFIT
    Keyword: DF_BASIS_SCF
    atoms 1-2  entry O          line   286 file /home1/07844/xy3866/miniconda3/envs/p4env/share/psi4/basis/aug-cc-pvtz-jkfit.gbs 
    atoms 3-6  entry C          line   162 file /home1/07844/xy3866/miniconda3/envs/p4env/share/psi4/basis/aug-cc-pvtz-jkfit.gbs 
    atoms 7-16 entry H          line    70 file /home1/07844/xy3866/miniconda3/envs/p4env/share/psi4/basis/aug-cc-pvtz-jkfit.gbs 

  ==> Integral Setup <==

  DFHelper Memory: AOs need 1.974 GiB; user supplied 22.352 GiB. Using in-core AOs.

  ==> MemDFJK: Density-Fitted J/K Matrices <==

    J tasked:                   Yes
    K tasked:                   Yes
    wK tasked:                   No
    OpenMP threads:              32
    Memory [MiB]:             22888
    Algorithm:                 Core
    Schwarz Cutoff:           1E-12
    Mask sparsity (%):      10.3939
    Fitting Condition:        1E-10

   => Auxiliary Basis Set <=

  Basis Set: (AUG-CC-PVTZ AUX)
    Blend: AUG-CC-PVTZ-JKFIT
    Number of shells: 320
    Number of basis functions: 1084
    Number of Cartesian functions: 1336
    Spherical Harmonics?: true
    Max angular momentum: 4

  Minimum eigenvalue in the overlap matrix is 8.2894882899E-06.
  Reciprocal condition number of the overlap matrix is 4.8224865295E-07.
    Using symmetric orthogonalization.

  ==> Pre-Iterations <==

  SCF Guess: Superposition of Atomic Densities via on-the-fly atomic UHF (no occupation information).

   -------------------------
    Irrep   Nso     Nmo    
   -------------------------
     A        506     506 
   -------------------------
    Total     506     506
   -------------------------

  ==> Iterations <==

                           Total Energy        Delta E     RMS |[F,P]|

   @DF-RHF iter SAD:  -306.15339127865843   -3.06153e+02   0.00000e+00 
   @DF-RHF iter   1:  -306.93291661967896   -7.79525e-01   1.03922e-03 DIIS
   @DF-RHF iter   2:  -307.07486716477035   -1.41951e-01   4.72122e-04 DIIS
   @DF-RHF iter   3:  -307.09759640813792   -2.27292e-02   1.31203e-04 DIIS
   @DF-RHF iter   4:  -307.10006238027916   -2.46597e-03   3.64291e-05 DIIS
   @DF-RHF iter   5:  -307.10025865451826   -1.96274e-04   6.60070e-06 DIIS
   @DF-RHF iter   6:  -307.10026785799869   -9.20348e-06   1.42852e-06 DIIS
   @DF-RHF iter   7:  -307.10026838115544   -5.23157e-07   3.43344e-07 DIIS
   @DF-RHF iter   8:  -307.10026840638005   -2.52246e-08   1.12905e-07 DIIS
   @DF-RHF iter   9:  -307.10026840912172   -2.74167e-09   2.94678e-08 DIIS
   @DF-RHF iter  10:  -307.10026840940247   -2.80750e-10   7.17462e-09 DIIS
   @DF-RHF iter  11:  -307.10026840942112   -1.86446e-11   1.45970e-09 DIIS
   @DF-RHF iter  12:  -307.10026840942089    2.27374e-13   6.47788e-10 DIIS
   @DF-RHF iter  13:  -307.10026840942123   -3.41061e-13   1.55888e-10 DIIS
   @DF-RHF iter  14:  -307.10026840942146   -2.27374e-13   4.34741e-11 DIIS
  Energy and wave function converged.


  ==> Post-Iterations <==

    Orbital Energies [Eh]
    ---------------------

    Doubly Occupied:                                                      

       1A    -20.558839     2A    -20.558295     3A    -11.272169  
       4A    -11.271472     5A    -11.271442     6A    -11.271336  
       7A     -1.379141     8A     -1.367528     9A     -1.024200  
      10A     -0.933404    11A     -0.884365    12A     -0.828761  
      13A     -0.688433    14A     -0.665803    15A     -0.653172  
      16A     -0.642937    17A     -0.610291    18A     -0.593010  
      19A     -0.575066    20A     -0.515733    21A     -0.503494  
      22A     -0.489495    23A     -0.473476    24A     -0.427191  
      25A     -0.425387  

    Virtual:                                                              

      26A      0.030822    27A      0.034823    28A      0.041555  
      29A      0.042510    30A      0.051397    31A      0.053664  
      32A      0.057734    33A      0.071339    34A      0.072279  
      35A      0.075948    36A      0.096363    37A      0.102793  
      38A      0.123992    39A      0.124945    40A      0.127318  
      41A      0.132144    42A      0.141860    43A      0.142317  
      44A      0.150473    45A      0.154963    46A      0.156453  
      47A      0.158486    48A      0.170136    49A      0.180231  
      50A      0.184714    51A      0.200740    52A      0.215194  
      53A      0.217331    54A      0.217535    55A      0.221499  
      56A      0.239550    57A      0.254933    58A      0.257358  
      59A      0.268040    60A      0.278694    61A      0.283058  
      62A      0.294459    63A      0.298941    64A      0.309894  
      65A      0.311268    66A      0.318778    67A      0.322114  
      68A      0.331196    69A      0.338339    70A      0.338459  
      71A      0.342720    72A      0.343746    73A      0.347090  
      74A      0.349516    75A      0.359145    76A      0.370121  
      77A      0.373742    78A      0.374164    79A      0.383965  
      80A      0.390660    81A      0.395295    82A      0.398288  
      83A      0.399510    84A      0.418050    85A      0.418495  
      86A      0.426237    87A      0.428429    88A      0.430373  
      89A      0.434191    90A      0.441200    91A      0.456196  
      92A      0.462448    93A      0.469493    94A      0.471098  
      95A      0.476050    96A      0.480315    97A      0.489370  
      98A      0.493375    99A      0.496034   100A      0.498781  
     101A      0.502355   102A      0.507793   103A      0.514416  
     104A      0.516997   105A      0.520419   106A      0.533561  
     107A      0.541039   108A      0.552143   109A      0.555703  
     110A      0.581052   111A      0.581557   112A      0.584296  
     113A      0.585684   114A      0.588041   115A      0.602158  
     116A      0.627721   117A      0.629604   118A      0.635168  
     119A      0.655416   120A      0.676135   121A      0.688885  
     122A      0.694172   123A      0.694716   124A      0.698698  
     125A      0.750908   126A      0.755536   127A      0.761066  
     128A      0.767117   129A      0.775658   130A      0.786618  
     131A      0.801088   132A      0.813513   133A      0.815260  
     134A      0.824597   135A      0.826674   136A      0.828819  
     137A      0.833054   138A      0.834712   139A      0.851295  
     140A      0.853607   141A      0.858035   142A      0.868422  
     143A      0.874860   144A      0.877850   145A      0.893240  
     146A      0.914799   147A      0.915448   148A      0.924451  
     149A      0.926792   150A      0.944906   151A      0.946822  
     152A      0.947678   153A      0.956284   154A      0.960729  
     155A      0.983954   156A      0.986629   157A      0.996681  
     158A      0.999749   159A      1.002068   160A      1.003755  
     161A      1.036300   162A      1.044365   163A      1.050236  
     164A      1.062191   165A      1.063020   166A      1.065162  
     167A      1.068683   168A      1.074567   169A      1.080716  
     170A      1.093637   171A      1.101859   172A      1.116765  
     173A      1.131569   174A      1.132116   175A      1.138395  
     176A      1.141787   177A      1.155547   178A      1.162893  
     179A      1.170106   180A      1.174347   181A      1.177725  
     182A      1.180258   183A      1.183180   184A      1.201524  
     185A      1.206730   186A      1.211926   187A      1.224614  
     188A      1.225465   189A      1.226556   190A      1.236207  
     191A      1.250523   192A      1.266178   193A      1.275813  
     194A      1.287469   195A      1.288525   196A      1.291184  
     197A      1.318892   198A      1.320006   199A      1.325996  
     200A      1.330882   201A      1.364824   202A      1.372724  
     203A      1.385711   204A      1.397195   205A      1.425680  
     206A      1.433130   207A      1.458028   208A      1.470751  
     209A      1.472348   210A      1.478732   211A      1.481599  
     212A      1.501889   213A      1.523780   214A      1.539535  
     215A      1.552503   216A      1.566071   217A      1.581369  
     218A      1.593499   219A      1.596155   220A      1.602666  
     221A      1.605570   222A      1.617879   223A      1.621400  
     224A      1.635488   225A      1.639144   226A      1.646739  
     227A      1.662291   228A      1.664968   229A      1.672397  
     230A      1.677728   231A      1.681817   232A      1.684293  
     233A      1.686624   234A      1.704252   235A      1.716550  
     236A      1.719311   237A      1.730049   238A      1.738557  
     239A      1.742663   240A      1.757624   241A      1.766317  
     242A      1.799565   243A      1.800958   244A      1.802975  
     245A      1.819522   246A      1.829288   247A      1.833276  
     248A      1.866837   249A      1.875222   250A      1.880663  
     251A      1.888780   252A      1.910407   253A      1.924268  
     254A      1.933418   255A      1.935584   256A      1.944616  
     257A      1.954063   258A      1.978894   259A      2.000571  
     260A      2.001378   261A      2.003069   262A      2.034270  
     263A      2.037105   264A      2.060654   265A      2.090510  
     266A      2.110814   267A      2.122775   268A      2.123580  
     269A      2.137614   270A      2.172267   271A      2.176264  
     272A      2.200916   273A      2.207930   274A      2.212719  
     275A      2.218298   276A      2.225389   277A      2.230637  
     278A      2.244455   279A      2.259745   280A      2.309499  
     281A      2.357645   282A      2.368301   283A      2.373384  
     284A      2.397716   285A      2.400996   286A      2.406084  
     287A      2.445510   288A      2.448521   289A      2.471938  
     290A      2.521956   291A      2.562173   292A      2.565796  
     293A      2.604139   294A      2.614862   295A      2.660400  
     296A      2.693215   297A      2.752699   298A      2.770158  
     299A      2.790300   300A      2.790624   301A      2.800771  
     302A      2.827335   303A      2.869404   304A      2.916158  
     305A      2.944746   306A      2.950080   307A      2.983374  
     308A      2.987301   309A      3.034885   310A      3.053201  
     311A      3.075191   312A      3.103105   313A      3.140665  
     314A      3.152637   315A      3.153111   316A      3.169804  
     317A      3.196495   318A      3.213831   319A      3.276111  
     320A      3.282811   321A      3.326391   322A      3.362201  
     323A      3.373842   324A      3.383700   325A      3.442636  
     326A      3.453483   327A      3.468764   328A      3.485115  
     329A      3.509166   330A      3.525072   331A      3.536543  
     332A      3.618493   333A      3.622240   334A      3.633664  
     335A      3.639342   336A      3.651110   337A      3.669582  
     338A      3.671126   339A      3.700238   340A      3.720176  
     341A      3.743189   342A      3.754327   343A      3.767315  
     344A      3.769732   345A      3.785258   346A      3.802833  
     347A      3.808376   348A      3.849505   349A      3.859501  
     350A      3.871598   351A      3.877012   352A      3.894828  
     353A      3.896150   354A      3.908704   355A      3.927755  
     356A      3.959128   357A      3.962961   358A      3.968485  
     359A      3.973571   360A      4.015042   361A      4.026353  
     362A      4.038122   363A      4.041531   364A      4.068602  
     365A      4.093617   366A      4.109065   367A      4.110956  
     368A      4.137284   369A      4.137489   370A      4.164691  
     371A      4.178283   372A      4.183898   373A      4.202451  
     374A      4.207729   375A      4.229909   376A      4.233429  
     377A      4.269074   378A      4.271944   379A      4.291900  
     380A      4.314189   381A      4.318593   382A      4.345427  
     383A      4.351001   384A      4.352796   385A      4.387887  
     386A      4.422665   387A      4.444708   388A      4.471063  
     389A      4.495607   390A      4.564904   391A      4.572441  
     392A      4.592902   393A      4.608649   394A      4.619347  
     395A      4.624975   396A      4.637089   397A      4.667702  
     398A      4.671546   399A      4.685954   400A      4.712809  
     401A      4.734858   402A      4.759781   403A      4.775203  
     404A      4.788331   405A      4.791964   406A      4.802870  
     407A      4.818933   408A      4.823027   409A      4.857803  
     410A      4.867449   411A      4.871328   412A      4.873134  
     413A      4.898813   414A      4.933237   415A      4.964333  
     416A      4.993146   417A      5.017113   418A      5.027325  
     419A      5.038470   420A      5.080512   421A      5.098167  
     422A      5.111013   423A      5.115662   424A      5.124611  
     425A      5.159800   426A      5.172989   427A      5.204121  
     428A      5.206899   429A      5.272714   430A      5.278028  
     431A      5.311398   432A      5.324656   433A      5.350394  
     434A      5.356155   435A      5.388622   436A      5.396806  
     437A      5.397316   438A      5.403216   439A      5.458807  
     440A      5.492795   441A      5.544281   442A      5.582326  
     443A      5.609947   444A      5.623700   445A      5.626201  
     446A      5.632932   447A      5.643394   448A      5.649096  
     449A      5.669155   450A      5.678319   451A      5.704590  
     452A      5.714997   453A      5.766819   454A      5.798788  
     455A      5.970967   456A      5.977575   457A      6.014298  
     458A      6.057835   459A      6.066490   460A      6.076069  
     461A      6.082819   462A      6.115792   463A      6.116028  
     464A      6.172409   465A      6.256444   466A      6.264088  
     467A      6.307403   468A      6.451694   469A      6.604784  
     470A      6.683469   471A      6.700263   472A      6.713617  
     473A      6.716202   474A      6.722568   475A      6.728637  
     476A      6.858294   477A      7.002897   478A      7.016841  
     479A      7.030642   480A      7.071036   481A      7.201799  
     482A      7.228376   483A      7.322297   484A      7.324785  
     485A      7.392649   486A      7.406025   487A      7.498625  
     488A      7.537637   489A      7.636657   490A      7.675381  
     491A      7.718533   492A      7.775079   493A      7.816568  
     494A      7.822924   495A      7.931215   496A      8.024991  
     497A      8.350526   498A      8.382965   499A      8.437320  
     500A      8.447210   501A     15.145178   502A     15.490854  
     503A     17.809753   504A     17.930081   505A     18.381684  
     506A     18.705230  

    Final Occupation by Irrep:
              A 
    DOCC [    25 ]

  @DF-RHF Final Energy:  -307.10026840942146

   => Energetics <=

    Nuclear Repulsion Energy =            252.6559294656952943
    One-Electron Energy =                -919.7435171197874979
    Two-Electron Energy =                 359.9873192446707435
    Total Energy =                       -307.1002684094214601

Computation Completed

*** tstop() called on c402-103.stampede2.tacc.utexas.edu at Mon Mar  1 10:46:06 2021
Module time:
	user time   =     288.37 seconds =       4.81 minutes
	system time =      25.35 seconds =       0.42 minutes
	total time  =         21 seconds =       0.35 minutes
Total time:
	user time   =     288.37 seconds =       4.81 minutes
	system time =      25.35 seconds =       0.42 minutes
	total time  =         21 seconds =       0.35 minutes
   => Loading Basis Set <=

    Name: (AUG-CC-PVTZ AUX)
    Role: RIFIT
    Keyword: DF_BASIS_MP2
    atoms 1-2  entry O          line   264 file /home1/07844/xy3866/miniconda3/envs/p4env/share/psi4/basis/aug-cc-pvtz-ri.gbs 
    atoms 3-6  entry C          line   148 file /home1/07844/xy3866/miniconda3/envs/p4env/share/psi4/basis/aug-cc-pvtz-ri.gbs 
    atoms 7-16 entry H          line    30 file /home1/07844/xy3866/miniconda3/envs/p4env/share/psi4/basis/aug-cc-pvtz-ri.gbs 


*** tstart() called on c402-103.stampede2.tacc.utexas.edu
*** at Mon Mar  1 10:46:07 2021


  //>>>>>>>>>>>>>>>>>>>>>>>>>>>>>>>>>>>//
  //               DFMP2               //
  //<<<<<<<<<<<<<<<<<<<<<<<<<<<<<<<<<<<//

	 --------------------------------------------------------
	                          DF-MP2                         
	      2nd-Order Density-Fitted Moller-Plesset Theory     
	              RMP2 Wavefunction,  32 Threads             
	                                                         
	        Rob Parrish, Justin Turney, Andy Simmonett,      
	           Ed Hohenstein, and C. David Sherrill          
	 --------------------------------------------------------

   => Auxiliary Basis Set <=

  Basis Set: (AUG-CC-PVTZ AUX)
    Blend: AUG-CC-PVTZ-RI
    Number of shells: 308
    Number of basis functions: 1096
    Number of Cartesian functions: 1366
    Spherical Harmonics?: true
    Max angular momentum: 4

	 --------------------------------------------------------
	                 NBF =   506, NAUX =  1096
	 --------------------------------------------------------
	   CLASS    FOCC     OCC    AOCC    AVIR     VIR    FVIR
	   PAIRS       0      25      25     481     481       0
	 --------------------------------------------------------

  DFHelper Memory: AOs need 2.050 GiB; user supplied 22.352 GiB. Using in-core AOs.


         ------------------------------------------------------------
                                     CPHF                           
                                  Rob Parrish                       
         ------------------------------------------------------------

  ==> Geometry <==

    Molecular point group: c1
    Full point group: C1

    Geometry (in Angstrom), charge = 0, multiplicity = 1:

       Center              X                  Y                   Z               Mass       
    ------------   -----------------  -----------------  -----------------  -----------------
         O           -1.710429729488     0.531980612058    -0.000254051032    15.994914619570
         O            1.710390270512    -0.532683387942    -0.000247051032    15.994914619570
         C           -0.642170729488    -0.400539387942    -0.000260051032    12.000000000000
         C            0.642131270512     0.399837612058    -0.000263051032    12.000000000000
         C           -2.968786729488    -0.121090387942    -0.000231051032    12.000000000000
         C            2.968747270512     0.120387612058    -0.000228051032    12.000000000000
         H           -0.676700529488    -1.015425187942     0.911354248968     1.007825032230
         H           -0.678475729488    -1.046814387942    -0.889826051032     1.007825032230
         H            0.678423270512     1.046121612058     0.889296948968     1.007825032230
         H            0.678437270512     1.046103612058    -0.889835051032     1.007825032230
         H           -3.729547729488     0.660352612058    -0.000233051032     1.007825032230
         H           -3.093232729488    -0.749664387942     0.892117948968     1.007825032230
         H           -3.093252729488    -0.749689387942    -0.892559051032     1.007825032230
         H            3.093214270512     0.748979612058    -0.892561051032     1.007825032230
         H            3.729508270512    -0.661055387942    -0.000223051032     1.007825032230
         H            3.093192270512     0.748968612058     0.892115948968     1.007825032230

  Nuclear repulsion =  252.655929465695294
  Reference energy  = -307.100268409421460

  ==> Basis Set <==

  Basis Set: AUG-CC-PVTZ
    Blend: AUG-CC-PVTZ
    Number of shells: 174
    Number of basis functions: 506
    Number of Cartesian functions: 580
    Spherical Harmonics?: true
    Max angular momentum: 3

  ==> CGRSolver (by Rob Parrish) <==

   Number of roots    =         1
   Preconditioning    =    JACOBI
   Convergence cutoff =     1E-06
   Maximum iterations =       100

  ==> CPHFRHamiltonian (by Rob Parrish) <== 

  ==> MemDFJK: Density-Fitted J/K Matrices <==

    J tasked:                   Yes
    K tasked:                   Yes
    wK tasked:                   No
    OpenMP threads:              32
    Memory [MiB]:             22888
    Algorithm:                 Core
    Schwarz Cutoff:           1E-12
    Mask sparsity (%):       6.7162
    Fitting Condition:        1E-10

   => Auxiliary Basis Set <=

  Basis Set: (AUG-CC-PVTZ AUX)
    Blend: AUG-CC-PVTZ-JKFIT
    Number of shells: 320
    Number of basis functions: 1084
    Number of Cartesian functions: 1336
    Spherical Harmonics?: true
    Max angular momentum: 4

  ==> CPHF Iterations <==

  => Iterations <=

             Iter  Converged  Remaining    Residual
  CGR           1          0          1   7.326E-02
  CGR           2          0          1   1.725E-02
  CGR           3          0          1   5.935E-03
  CGR           4          0          1   1.450E-03
  CGR           5          0          1   2.796E-04
  CGR           6          0          1   5.672E-05
  CGR           7          0          1   1.735E-05
  CGR           8          0          1   5.678E-06
  CGR           9          0          1   1.333E-06
  CGR          10          1          0   4.834E-07

    CGRSolver converged.

	-----------------------------------------------------------
	 ==================> DF-MP2 Energies <==================== 
	-----------------------------------------------------------
	 Reference Energy          =    -307.1002684094214601 [Eh]
	 Singles Energy            =      -0.0000000000000000 [Eh]
	 Same-Spin Energy          =      -0.2947410871098843 [Eh]
	 Opposite-Spin Energy      =      -1.0072110526942326 [Eh]
	 Correlation Energy        =      -1.3019521398041169 [Eh]
	 Total Energy              =    -308.4022205492256035 [Eh]
	-----------------------------------------------------------
	 ================> DF-SCS-MP2 Energies <================== 
	-----------------------------------------------------------
	 SCS Same-Spin Scale       =       0.3333333333333333 [-]
	 SCS Opposite-Spin Scale   =       1.2000000000000000 [-]
	 SCS Same-Spin Energy      =      -0.0982470290366281 [Eh]
	 SCS Opposite-Spin Energy  =      -1.2086532632330791 [Eh]
	 SCS Correlation Energy    =      -1.3069002922697073 [Eh]
	 SCS Total Energy          =    -308.4071687016911483 [Eh]
	-----------------------------------------------------------



Properties will be evaluated at  -0.000000,   0.000000,  -0.000000 [a0]

Properties computed using the MP2 density matrix

  Nuclear Dipole Moment: [e a0]
     X:     0.0015      Y:     0.0261      Z:     0.0184

  Electronic Dipole Moment: [e a0]
     X:     0.0007      Y:    -0.0239      Z:    -0.0185

  Dipole Moment: [e a0]
     X:     0.0022      Y:     0.0022      Z:    -0.0001     Total:     0.0031

  Dipole Moment: [D]
     X:     0.0055      Y:     0.0056      Z:    -0.0003     Total:     0.0079


*** tstop() called on c402-103.stampede2.tacc.utexas.edu at Mon Mar  1 10:47:46 2021
Module time:
	user time   =     773.00 seconds =      12.88 minutes
	system time =      32.47 seconds =       0.54 minutes
	total time  =         99 seconds =       1.65 minutes
Total time:
	user time   =    1062.17 seconds =      17.70 minutes
	system time =      57.84 seconds =       0.96 minutes
	total time  =        121 seconds =       2.02 minutes

    Psi4 stopped on: Monday, 01 March 2021 10:47AM
    Psi4 wall time for execution: 0:02:01.79

*** Psi4 exiting successfully. Buy a developer a beer!
