
    -----------------------------------------------------------------------
          Psi4: An Open-Source Ab Initio Electronic Structure Package
                               Psi4 1.3.2 release

                         Git: Rev {HEAD} ecbda83 


    R. M. Parrish, L. A. Burns, D. G. A. Smith, A. C. Simmonett,
    A. E. DePrince III, E. G. Hohenstein, U. Bozkaya, A. Yu. Sokolov,
    R. Di Remigio, R. M. Richard, J. F. Gonthier, A. M. James,
    H. R. McAlexander, A. Kumar, M. Saitow, X. Wang, B. P. Pritchard,
    P. Verma, H. F. Schaefer III, K. Patkowski, R. A. King, E. F. Valeev,
    F. A. Evangelista, J. M. Turney, T. D. Crawford, and C. D. Sherrill,
    J. Chem. Theory Comput. 13(7) pp 3185--3197 (2017).
    (doi: 10.1021/acs.jctc.7b00174)


                         Additional Contributions by
    P. Kraus, H. Kruse, M. H. Lechner, M. C. Schieber, R. A. Shaw,
    A. Alenaizan, R. Galvelis, Z. L. Glick, S. Lehtola, and J. P. Misiewicz

    -----------------------------------------------------------------------


    Psi4 started on: Sunday, 28 March 2021 05:28AM

    Process ID: 18566
    Host:       node144.bme.utexas.edu
    PSIDATADIR: /home/xy3866/psi4conda/share/psi4
    Memory:     500.0 MiB
    Threads:    8
    
  ==> Input File <==

--------------------------------------------------------------------------
#psi4
#
memory 32 gb

molecule  {
0 1
 Cl       -1.5623360     0.9145460    -1.3283100
 Cl       -1.8035240    -1.6987570    -0.1947580
 Cl       -1.5102210     0.5498050     1.5667370
  C        0.5425250    -0.2377090    -0.0306430
  C        1.3583330     0.9211750     0.0000800
  C        1.1449540    -1.5037020    -0.0241300
  C        2.7480770     0.7402810    -0.0004710
  C       -0.9734147    -0.1284741    -0.0523980
  C        0.8627320     2.3487980    -0.0134970
  C        2.5304820    -1.6481190    -0.0246080
  C        3.3427940    -0.5189970    -0.0108730
  H        0.5328240    -2.3960530    -0.0303120
  H        3.3795310     1.6262990     0.0194810
  H        0.6542430     2.6831410    -1.0334720
  H       -0.0421520     2.4939510     0.5743960
  H        1.6388160     2.9983140     0.4002560
  H        2.9642350    -2.6446820    -0.0247670
  H        4.4259130    -0.6124980    -0.0086910
units angstrom
no_reorient  #important for SAPT in psi4, default
symmetry c1  #important for SAPT in psi4, default
}

set PROPERTIES_ORIGIN ["COM"]
properties('MP2/aug-cc-pvtz', properties = ['dipole'])
--------------------------------------------------------------------------

  Memory set to  29.802 GiB by Python driver.
    SCF Algorithm Type (re)set to DF.

*** tstart() called on node144.bme.utexas.edu
*** at Sun Mar 28 05:28:18 2021

   => Loading Basis Set <=

    Name: AUG-CC-PVTZ
    Role: ORBITAL
    Keyword: BASIS
    atoms 1-3   entry CL         line   984 file /home/xy3866/psi4conda/share/psi4/basis/aug-cc-pvtz.gbs 
    atoms 4-11  entry C          line   235 file /home/xy3866/psi4conda/share/psi4/basis/aug-cc-pvtz.gbs 
    atoms 12-18 entry H          line    36 file /home/xy3866/psi4conda/share/psi4/basis/aug-cc-pvtz.gbs 


         ---------------------------------------------------------
                                   SCF
               by Justin Turney, Rob Parrish, Andy Simmonett
                          and Daniel G. A. Smith
                              RHF Reference
                        8 Threads,  30517 MiB Core
         ---------------------------------------------------------

  ==> Geometry <==

    Molecular point group: c1
    Full point group: C1

    Geometry (in Angstrom), charge = 0, multiplicity = 1:

       Center              X                  Y                   Z               Mass       
    ------------   -----------------  -----------------  -----------------  -----------------
         CL          -1.474946174216     0.935400550634    -1.326120453528    34.968852682000
         CL          -1.716134174216    -1.677902449366    -0.192568453528    34.968852682000
         CL          -1.422831174216     0.570659550634     1.568926546472    34.968852682000
         C            0.629914825784    -0.216854449366    -0.028453453528    12.000000000000
         C            1.445722825784     0.942029550634     0.002269546472    12.000000000000
         C            1.232343825784    -1.482847449366    -0.021940453528    12.000000000000
         C            2.835466825784     0.761135550634     0.001718546472    12.000000000000
         C           -0.886024874216    -0.107619549366    -0.050208453528    12.000000000000
         C            0.950121825784     2.369652550634    -0.011307453528    12.000000000000
         C            2.617871825784    -1.627264449366    -0.022418453528    12.000000000000
         C            3.430183825784    -0.498142449366    -0.008683453528    12.000000000000
         H            0.620213825784    -2.375198449366    -0.028122453528     1.007825032230
         H            3.466920825784     1.647153550634     0.021670546472     1.007825032230
         H            0.741632825784     2.703995550634    -1.031282453528     1.007825032230
         H            0.045237825784     2.514805550634     0.576585546472     1.007825032230
         H            1.726205825784     3.019168550634     0.402445546472     1.007825032230
         H            3.051624825784    -2.623827449366    -0.022577453528     1.007825032230
         H            4.513302825784    -0.591643449366    -0.006501453528     1.007825032230

  Running in c1 symmetry.

  Rotational constants: A =      0.03539  B =      0.02020  C =      0.01669 [cm^-1]
  Rotational constants: A =   1060.83655  B =    605.56591  C =    500.39350 [MHz]
  Nuclear repulsion =  901.443981624267508

  Charge       = 0
  Multiplicity = 1
  Electrons    = 106
  Nalpha       = 53
  Nbeta        = 53

  ==> Algorithm <==

  SCF Algorithm Type is DF.
  DIIS enabled.
  MOM disabled.
  Fractional occupation disabled.
  Guess Type is SAD.
  Energy threshold   = 1.00e-10
  Density threshold  = 1.00e-10
  Integral threshold = 0.00e+00

  ==> Primary Basis <==

  Basis Set: AUG-CC-PVTZ
    Blend: AUG-CC-PVTZ
    Number of shells: 223
    Number of basis function: 679
    Number of Cartesian functions: 792
    Spherical Harmonics?: true
    Max angular momentum: 3

   => Loading Basis Set <=

    Name: (AUG-CC-PVTZ AUX)
    Role: JKFIT
    Keyword: DF_BASIS_SCF
    atoms 1-3   entry CL         line   816 file /home/xy3866/psi4conda/share/psi4/basis/aug-cc-pvtz-jkfit.gbs 
    atoms 4-11  entry C          line   162 file /home/xy3866/psi4conda/share/psi4/basis/aug-cc-pvtz-jkfit.gbs 
    atoms 12-18 entry H          line    70 file /home/xy3866/psi4conda/share/psi4/basis/aug-cc-pvtz-jkfit.gbs 

  ==> Pre-Iterations <==

   -------------------------------------------------------
    Irrep   Nso     Nmo     Nalpha   Nbeta   Ndocc  Nsocc
   -------------------------------------------------------
     A        679     679       0       0       0       0
   -------------------------------------------------------
    Total     679     679      53      53      53       0
   -------------------------------------------------------

  ==> Integral Setup <==

  DFHelper Memory: AOs need 5.391 GiB; user supplied 22.352 GiB. Using in-core AOs.

  ==> MemDFJK: Density-Fitted J/K Matrices <==

    J tasked:                   Yes
    K tasked:                   Yes
    wK tasked:                   No
    OpenMP threads:               8
    Memory [MiB]:             22888
    Algorithm:                 Disk
    Schwarz Cutoff:           1E-12
    Mask sparsity (%):       3.9645
    Fitting Condition:        1E-10

   => Auxiliary Basis Set <=

  Basis Set: (AUG-CC-PVTZ AUX)
    Blend: AUG-CC-PVTZ-JKFIT
    Number of shells: 464
    Number of basis function: 1592
    Number of Cartesian functions: 1973
    Spherical Harmonics?: true
    Max angular momentum: 4

  Minimum eigenvalue in the overlap matrix is 4.8506002061E-07.
  Using Symmetric Orthogonalization.

  SCF Guess: Superposition of Atomic Densities via on-the-fly atomic UHF.

  ==> Iterations <==

                           Total Energy        Delta E     RMS |[F,P]|

   @DF-RHF iter SAD: -1685.61021628884168   -1.68561e+03   0.00000e+00 
   @DF-RHF iter   1: -1685.34916014103737    2.61056e-01   1.03002e-03 DIIS
   @DF-RHF iter   2: -1685.56677527933994   -2.17615e-01   5.89300e-04 DIIS
   @DF-RHF iter   3: -1685.64192384739772   -7.51486e-02   1.37338e-04 DIIS
   @DF-RHF iter   4: -1685.64725218864578   -5.32834e-03   6.62408e-05 DIIS
   @DF-RHF iter   5: -1685.64848764715816   -1.23546e-03   1.36419e-05 DIIS
   @DF-RHF iter   6: -1685.64856539489278   -7.77477e-05   5.61915e-06 DIIS
   @DF-RHF iter   7: -1685.64858016340804   -1.47685e-05   1.88240e-06 DIIS
   @DF-RHF iter   8: -1685.64858253644979   -2.37304e-06   8.37003e-07 DIIS
   @DF-RHF iter   9: -1685.64858320144936   -6.65000e-07   4.05428e-07 DIIS
   @DF-RHF iter  10: -1685.64858340607043   -2.04621e-07   1.79567e-07 DIIS
   @DF-RHF iter  11: -1685.64858345007883   -4.40084e-08   8.10523e-08 DIIS
   @DF-RHF iter  12: -1685.64858345533162   -5.25279e-09   2.56902e-08 DIIS
   @DF-RHF iter  13: -1685.64858345586708   -5.35465e-10   6.25310e-09 DIIS
   @DF-RHF iter  14: -1685.64858345588891   -2.18279e-11   2.37438e-09 DIIS
   @DF-RHF iter  15: -1685.64858345589300   -4.09273e-12   9.19955e-10 DIIS
   @DF-RHF iter  16: -1685.64858345588777    5.22959e-12   4.27901e-10 DIIS
   @DF-RHF iter  17: -1685.64858345588868   -9.09495e-13   1.95438e-10 DIIS
   @DF-RHF iter  18: -1685.64858345588982   -1.13687e-12   8.20397e-11 DIIS
  Energy and wave function converged.


  ==> Post-Iterations <==

    Orbital Energies [Eh]
    ---------------------

    Doubly Occupied:                                                      

       1A   -104.861048     2A   -104.858856     3A   -104.849032  
       4A    -11.442746     5A    -11.274283     6A    -11.267489  
       7A    -11.253230     8A    -11.251308     9A    -11.244858  
      10A    -11.244238    11A    -11.229949    12A    -10.586162  
      13A    -10.583476    14A    -10.573241    15A     -8.052947  
      16A     -8.050789    17A     -8.050743    18A     -8.050177  
      19A     -8.048132    20A     -8.048123    21A     -8.039859  
      22A     -8.037897    23A     -8.037856    24A     -1.247535  
      25A     -1.164982    26A     -1.113283    27A     -1.097764  
      28A     -1.058175    29A     -1.037686    30A     -0.951406  
      31A     -0.882553    32A     -0.824998    33A     -0.789141  
      34A     -0.703562    35A     -0.667614    36A     -0.652921  
      37A     -0.626580    38A     -0.617916    39A     -0.600794  
      40A     -0.587297    41A     -0.581884    42A     -0.555273  
      43A     -0.521132    44A     -0.507436    45A     -0.504632  
      46A     -0.497284    47A     -0.487956    48A     -0.463643  
      49A     -0.454891    50A     -0.447254    51A     -0.440808  
      52A     -0.350837    53A     -0.338983  

    Virtual:                                                              

      54A      0.026567    55A      0.031687    56A      0.037816  
      57A      0.046403    58A      0.048164    59A      0.053998  
      60A      0.069619    61A      0.077357    62A      0.081664  
      63A      0.083242    64A      0.086046    65A      0.092710  
      66A      0.098694    67A      0.100741    68A      0.101585  
      69A      0.110907    70A      0.115477    71A      0.117804  
      72A      0.123037    73A      0.126891    74A      0.129020  
      75A      0.132101    76A      0.137453    77A      0.139209  
      78A      0.142514    79A      0.146488    80A      0.149399  
      81A      0.157259    82A      0.160781    83A      0.164632  
      84A      0.168870    85A      0.169651    86A      0.176683  
      87A      0.180950    88A      0.185331    89A      0.186356  
      90A      0.188450    91A      0.194681    92A      0.202048  
      93A      0.204692    94A      0.213740    95A      0.222160  
      96A      0.224373    97A      0.226126    98A      0.232233  
      99A      0.236725   100A      0.243231   101A      0.248420  
     102A      0.257010   103A      0.260059   104A      0.265244  
     105A      0.267323   106A      0.273754   107A      0.279328  
     108A      0.288099   109A      0.291484   110A      0.305434  
     111A      0.308966   112A      0.310770   113A      0.316278  
     114A      0.321014   115A      0.323965   116A      0.328413  
     117A      0.336829   118A      0.340823   119A      0.347238  
     120A      0.353307   121A      0.358557   122A      0.362825  
     123A      0.366213   124A      0.372848   125A      0.377104  
     126A      0.382808   127A      0.388846   128A      0.391330  
     129A      0.393664   130A      0.399712   131A      0.404882  
     132A      0.411256   133A      0.416345   134A      0.418996  
     135A      0.419817   136A      0.426094   137A      0.429312  
     138A      0.433667   139A      0.438978   140A      0.446408  
     141A      0.452877   142A      0.457912   143A      0.460821  
     144A      0.462538   145A      0.465555   146A      0.471574  
     147A      0.477085   148A      0.480117   149A      0.483182  
     150A      0.490086   151A      0.492632   152A      0.495567  
     153A      0.496755   154A      0.505066   155A      0.510391  
     156A      0.515024   157A      0.520798   158A      0.524199  
     159A      0.525510   160A      0.534279   161A      0.535660  
     162A      0.539484   163A      0.545193   164A      0.549239  
     165A      0.551140   166A      0.555471   167A      0.557870  
     168A      0.566631   169A      0.577691   170A      0.583116  
     171A      0.588891   172A      0.591731   173A      0.598797  
     174A      0.604286   175A      0.617823   176A      0.628300  
     177A      0.634262   178A      0.637117   179A      0.642246  
     180A      0.647652   181A      0.658307   182A      0.664111  
     183A      0.674315   184A      0.685602   185A      0.689159  
     186A      0.694518   187A      0.710269   188A      0.711855  
     189A      0.716998   190A      0.723101   191A      0.726968  
     192A      0.731108   193A      0.737725   194A      0.744221  
     195A      0.749955   196A      0.752245   197A      0.760634  
     198A      0.763788   199A      0.779276   200A      0.789335  
     201A      0.796751   202A      0.798967   203A      0.809728  
     204A      0.815311   205A      0.827776   206A      0.831683  
     207A      0.840260   208A      0.845637   209A      0.847393  
     210A      0.848739   211A      0.855095   212A      0.862650  
     213A      0.867357   214A      0.872473   215A      0.875460  
     216A      0.882164   217A      0.884644   218A      0.890877  
     219A      0.892381   220A      0.902416   221A      0.909332  
     222A      0.916428   223A      0.920770   224A      0.924639  
     225A      0.926191   226A      0.934588   227A      0.937830  
     228A      0.940162   229A      0.952717   230A      0.955946  
     231A      0.957966   232A      0.960297   233A      0.970538  
     234A      0.975341   235A      0.982030   236A      0.983459  
     237A      0.986264   238A      0.998094   239A      1.003915  
     240A      1.005639   241A      1.009435   242A      1.013211  
     243A      1.016913   244A      1.025616   245A      1.032857  
     246A      1.035564   247A      1.037781   248A      1.040358  
     249A      1.054103   250A      1.056102   251A      1.065660  
     252A      1.070305   253A      1.073545   254A      1.079559  
     255A      1.085669   256A      1.093758   257A      1.097415  
     258A      1.102906   259A      1.107554   260A      1.108949  
     261A      1.112594   262A      1.126125   263A      1.126699  
     264A      1.135205   265A      1.138583   266A      1.147154  
     267A      1.150463   268A      1.162065   269A      1.167569  
     270A      1.168941   271A      1.176502   272A      1.182217  
     273A      1.187981   274A      1.195638   275A      1.202670  
     276A      1.208664   277A      1.217440   278A      1.220206  
     279A      1.230464   280A      1.236111   281A      1.245119  
     282A      1.249575   283A      1.258314   284A      1.268879  
     285A      1.277954   286A      1.278816   287A      1.284267  
     288A      1.293953   289A      1.297770   290A      1.308368  
     291A      1.314438   292A      1.317963   293A      1.327485  
     294A      1.329672   295A      1.358831   296A      1.364051  
     297A      1.368012   298A      1.376333   299A      1.388569  
     300A      1.396216   301A      1.398810   302A      1.408398  
     303A      1.424801   304A      1.429571   305A      1.432104  
     306A      1.439524   307A      1.445027   308A      1.447783  
     309A      1.456998   310A      1.460170   311A      1.471120  
     312A      1.491500   313A      1.503563   314A      1.511409  
     315A      1.516301   316A      1.526286   317A      1.535975  
     318A      1.540667   319A      1.547356   320A      1.557233  
     321A      1.563917   322A      1.569320   323A      1.583424  
     324A      1.587689   325A      1.595402   326A      1.608624  
     327A      1.622881   328A      1.627408   329A      1.635910  
     330A      1.643653   331A      1.656288   332A      1.661165  
     333A      1.671617   334A      1.676299   335A      1.678525  
     336A      1.690766   337A      1.698412   338A      1.705117  
     339A      1.722038   340A      1.729443   341A      1.737443  
     342A      1.740998   343A      1.750812   344A      1.753870  
     345A      1.766072   346A      1.771316   347A      1.780285  
     348A      1.787450   349A      1.792887   350A      1.798968  
     351A      1.805131   352A      1.809727   353A      1.821053  
     354A      1.829301   355A      1.833785   356A      1.846720  
     357A      1.856325   358A      1.863029   359A      1.866345  
     360A      1.881975   361A      1.887084   362A      1.890949  
     363A      1.894780   364A      1.900484   365A      1.911913  
     366A      1.916929   367A      1.929390   368A      1.933139  
     369A      1.946040   370A      1.950012   371A      1.960196  
     372A      1.963689   373A      1.978200   374A      1.993521  
     375A      2.000379   376A      2.018282   377A      2.019841  
     378A      2.031909   379A      2.035164   380A      2.041647  
     381A      2.055362   382A      2.059522   383A      2.061557  
     384A      2.075303   385A      2.084458   386A      2.091045  
     387A      2.108351   388A      2.117598   389A      2.120720  
     390A      2.132905   391A      2.151412   392A      2.158937  
     393A      2.168089   394A      2.170647   395A      2.180112  
     396A      2.194869   397A      2.205969   398A      2.209488  
     399A      2.223773   400A      2.236994   401A      2.250886  
     402A      2.267600   403A      2.269896   404A      2.278015  
     405A      2.293866   406A      2.305959   407A      2.318720  
     408A      2.326014   409A      2.335803   410A      2.350455  
     411A      2.359481   412A      2.390503   413A      2.405857  
     414A      2.430652   415A      2.432080   416A      2.451206  
     417A      2.468087   418A      2.472875   419A      2.499349  
     420A      2.514132   421A      2.538560   422A      2.551686  
     423A      2.555849   424A      2.599638   425A      2.602771  
     426A      2.629279   427A      2.654953   428A      2.677039  
     429A      2.685325   430A      2.703269   431A      2.707400  
     432A      2.712603   433A      2.728282   434A      2.735973  
     435A      2.758449   436A      2.774955   437A      2.784973  
     438A      2.790005   439A      2.800728   440A      2.809751  
     441A      2.820037   442A      2.828941   443A      2.853967  
     444A      2.859797   445A      2.887194   446A      2.896185  
     447A      2.933296   448A      2.947269   449A      2.959736  
     450A      2.991925   451A      2.998677   452A      3.015285  
     453A      3.044648   454A      3.076083   455A      3.091142  
     456A      3.112414   457A      3.114881   458A      3.134207  
     459A      3.139613   460A      3.159185   461A      3.164208  
     462A      3.189450   463A      3.207919   464A      3.218835  
     465A      3.227393   466A      3.238748   467A      3.247649  
     468A      3.251597   469A      3.256245   470A      3.266133  
     471A      3.273155   472A      3.293083   473A      3.302762  
     474A      3.311635   475A      3.313010   476A      3.327997  
     477A      3.331186   478A      3.334220   479A      3.346944  
     480A      3.353572   481A      3.358551   482A      3.375024  
     483A      3.380964   484A      3.388245   485A      3.400088  
     486A      3.422981   487A      3.425648   488A      3.436476  
     489A      3.439693   490A      3.458764   491A      3.466564  
     492A      3.473575   493A      3.480489   494A      3.488629  
     495A      3.501063   496A      3.513465   497A      3.526235  
     498A      3.531873   499A      3.534904   500A      3.556676  
     501A      3.561808   502A      3.566952   503A      3.585731  
     504A      3.591904   505A      3.594142   506A      3.601688  
     507A      3.608916   508A      3.637263   509A      3.642768  
     510A      3.660056   511A      3.661369   512A      3.687053  
     513A      3.703096   514A      3.713092   515A      3.725429  
     516A      3.739362   517A      3.748931   518A      3.762277  
     519A      3.765636   520A      3.777740   521A      3.781189  
     522A      3.795402   523A      3.800583   524A      3.819630  
     525A      3.840745   526A      3.848848   527A      3.853808  
     528A      3.874006   529A      3.881268   530A      3.894828  
     531A      3.898781   532A      3.912982   533A      3.928091  
     534A      3.937031   535A      3.944179   536A      3.966139  
     537A      3.972543   538A      3.988976   539A      3.992262  
     540A      4.005805   541A      4.006400   542A      4.029979  
     543A      4.038688   544A      4.047329   545A      4.050421  
     546A      4.061284   547A      4.073504   548A      4.091039  
     549A      4.105121   550A      4.112963   551A      4.128341  
     552A      4.133055   553A      4.151824   554A      4.160864  
     555A      4.172810   556A      4.186620   557A      4.210960  
     558A      4.215031   559A      4.241265   560A      4.245734  
     561A      4.270017   562A      4.275857   563A      4.283587  
     564A      4.290936   565A      4.299720   566A      4.322763  
     567A      4.332725   568A      4.346208   569A      4.368448  
     570A      4.378198   571A      4.389160   572A      4.393132  
     573A      4.396969   574A      4.405955   575A      4.412571  
     576A      4.430230   577A      4.441276   578A      4.448364  
     579A      4.462311   580A      4.471680   581A      4.475153  
     582A      4.508993   583A      4.526657   584A      4.539339  
     585A      4.563506   586A      4.589285   587A      4.591859  
     588A      4.617558   589A      4.627744   590A      4.650040  
     591A      4.666957   592A      4.676847   593A      4.707679  
     594A      4.731200   595A      4.733742   596A      4.738599  
     597A      4.780419   598A      4.786575   599A      4.791442  
     600A      4.796738   601A      4.820347   602A      4.830558  
     603A      4.832001   604A      4.871533   605A      4.892957  
     606A      4.915442   607A      4.951238   608A      4.951801  
     609A      4.962053   610A      4.977577   611A      4.986539  
     612A      5.014236   613A      5.018764   614A      5.073380  
     615A      5.081170   616A      5.099213   617A      5.118319  
     618A      5.124850   619A      5.135169   620A      5.143034  
     621A      5.151666   622A      5.165692   623A      5.199747  
     624A      5.204924   625A      5.235807   626A      5.254615  
     627A      5.270067   628A      5.281829   629A      5.307171  
     630A      5.329582   631A      5.352465   632A      5.382420  
     633A      5.419573   634A      5.457482   635A      5.467304  
     636A      5.485982   637A      5.501603   638A      5.525616  
     639A      5.600838   640A      5.620493   641A      5.682808  
     642A      5.709867   643A      5.729649   644A      5.762296  
     645A      5.778894   646A      5.799394   647A      5.858725  
     648A      5.883147   649A      6.052049   650A      6.084940  
     651A      6.108075   652A      6.133849   653A      6.182633  
     654A      6.205194   655A      6.233717   656A      6.249853  
     657A      6.307067   658A      6.325399   659A      6.440372  
     660A      6.495020   661A      6.507404   662A      6.663983  
     663A      6.810488   664A      6.822854   665A      6.925610  
     666A      6.967002   667A      7.083495   668A      7.240463  
     669A      7.934448   670A      8.162838   671A      8.437287  
     672A     15.679041   673A     16.150021   674A     16.673346  
     675A     18.488088   676A     19.167213   677A     19.754638  
     678A     19.966732   679A     20.884995  

    Final Occupation by Irrep:
              A 
    DOCC [    53 ]

  @DF-RHF Final Energy: -1685.64858345588982

   => Energetics <=

    Nuclear Repulsion Energy =            901.4439816242675079
    One-Electron Energy =               -4114.7598111536017313
    Two-Electron Energy =                1527.6672460734444030
    Total Energy =                      -1685.6485834558898205

Computation Completed

*** tstop() called on node144.bme.utexas.edu at Sun Mar 28 05:30:01 2021
Module time:
	user time   =     483.73 seconds =       8.06 minutes
	system time =      51.82 seconds =       0.86 minutes
	total time  =        103 seconds =       1.72 minutes
Total time:
	user time   =     483.73 seconds =       8.06 minutes
	system time =      51.82 seconds =       0.86 minutes
	total time  =        103 seconds =       1.72 minutes
   => Loading Basis Set <=

    Name: (AUG-CC-PVTZ AUX)
    Role: RIFIT
    Keyword: DF_BASIS_MP2
    atoms 1-3   entry CL         line   742 file /home/xy3866/psi4conda/share/psi4/basis/aug-cc-pvtz-ri.gbs 
    atoms 4-11  entry C          line   148 file /home/xy3866/psi4conda/share/psi4/basis/aug-cc-pvtz-ri.gbs 
    atoms 12-18 entry H          line    30 file /home/xy3866/psi4conda/share/psi4/basis/aug-cc-pvtz-ri.gbs 


*** tstart() called on node144.bme.utexas.edu
*** at Sun Mar 28 05:30:01 2021


  //>>>>>>>>>>>>>>>>>>>>>>>>>>>>>>>>>>>//
  //               DFMP2               //
  //<<<<<<<<<<<<<<<<<<<<<<<<<<<<<<<<<<<//

	 --------------------------------------------------------
	                          DF-MP2                         
	      2nd-Order Density-Fitted Moller-Plesset Theory     
	              RMP2 Wavefunction,   8 Threads             
	                                                         
	        Rob Parrish, Justin Turney, Andy Simmonett,      
	           Ed Hohenstein, and C. David Sherrill          
	 --------------------------------------------------------

   => Auxiliary Basis Set <=

  Basis Set: (AUG-CC-PVTZ AUX)
    Blend: AUG-CC-PVTZ-RI
    Number of shells: 433
    Number of basis function: 1611
    Number of Cartesian functions: 2046
    Spherical Harmonics?: true
    Max angular momentum: 4

	 --------------------------------------------------------
	                 NBF =   679, NAUX =  1611
	 --------------------------------------------------------
	   CLASS    FOCC     OCC    AOCC    AVIR     VIR    FVIR
	   PAIRS       0      53      53     626     626       0
	 --------------------------------------------------------

  DFHelper Memory: AOs need 5.391 GiB; user supplied 22.352 GiB. Using in-core AOs.


         ------------------------------------------------------------
                                     CPHF                           
                                  Rob Parrish                       
         ------------------------------------------------------------

  ==> Geometry <==

    Molecular point group: c1
    Full point group: C1

    Geometry (in Angstrom), charge = 0, multiplicity = 1:

       Center              X                  Y                   Z               Mass       
    ------------   -----------------  -----------------  -----------------  -----------------
         CL          -1.474946174216     0.935400550634    -1.326120453528    34.968852682000
         CL          -1.716134174216    -1.677902449366    -0.192568453528    34.968852682000
         CL          -1.422831174216     0.570659550634     1.568926546472    34.968852682000
         C            0.629914825784    -0.216854449366    -0.028453453528    12.000000000000
         C            1.445722825784     0.942029550634     0.002269546472    12.000000000000
         C            1.232343825784    -1.482847449366    -0.021940453528    12.000000000000
         C            2.835466825784     0.761135550634     0.001718546472    12.000000000000
         C           -0.886024874216    -0.107619549366    -0.050208453528    12.000000000000
         C            0.950121825784     2.369652550634    -0.011307453528    12.000000000000
         C            2.617871825784    -1.627264449366    -0.022418453528    12.000000000000
         C            3.430183825784    -0.498142449366    -0.008683453528    12.000000000000
         H            0.620213825784    -2.375198449366    -0.028122453528     1.007825032230
         H            3.466920825784     1.647153550634     0.021670546472     1.007825032230
         H            0.741632825784     2.703995550634    -1.031282453528     1.007825032230
         H            0.045237825784     2.514805550634     0.576585546472     1.007825032230
         H            1.726205825784     3.019168550634     0.402445546472     1.007825032230
         H            3.051624825784    -2.623827449366    -0.022577453528     1.007825032230
         H            4.513302825784    -0.591643449366    -0.006501453528     1.007825032230

  Nuclear repulsion =  901.443981624267508
  Reference energy  = -1685.648583455889820

  ==> Basis Set <==

  Basis Set: AUG-CC-PVTZ
    Blend: AUG-CC-PVTZ
    Number of shells: 223
    Number of basis function: 679
    Number of Cartesian functions: 792
    Spherical Harmonics?: true
    Max angular momentum: 3

  ==> CGRSolver (by Rob Parrish) <==

   Number of roots    =         1
   Preconditioning    =    JACOBI
   Convergence cutoff =     1E-06
   Maximum iterations =       100

  ==> CPHFRHamiltonian (by Rob Parrish) <== 

  ==> MemDFJK: Density-Fitted J/K Matrices <==

    J tasked:                   Yes
    K tasked:                   Yes
    wK tasked:                   No
    OpenMP threads:               8
    Memory [MiB]:             22888
    Algorithm:                 Disk
    Schwarz Cutoff:           1E-12
    Mask sparsity (%):       3.9645
    Fitting Condition:        1E-10

   => Auxiliary Basis Set <=

  Basis Set: (AUG-CC-PVTZ AUX)
    Blend: AUG-CC-PVTZ-JKFIT
    Number of shells: 464
    Number of basis function: 1592
    Number of Cartesian functions: 1973
    Spherical Harmonics?: true
    Max angular momentum: 4

  ==> CPHF Iterations <==

  => Iterations <=

             Iter  Converged  Remaining    Residual
  CGR           1          0          1   1.147E-01
  CGR           2          0          1   3.107E-02
  CGR           3          0          1   1.373E-02
  CGR           4          0          1   7.375E-03
  CGR           5          0          1   3.170E-03
  CGR           6          0          1   1.381E-03
  CGR           7          0          1   4.052E-04
  CGR           8          0          1   1.252E-04
  CGR           9          0          1   3.805E-05
  CGR          10          0          1   1.298E-05
  CGR          11          0          1   5.520E-06
  CGR          12          0          1   2.071E-06
  CGR          13          0          1   1.032E-06
  CGR          14          1          0   3.295E-07

    CGRSolver converged.

	-----------------------------------------------------------
	 ==================> DF-MP2 Energies <==================== 
	-----------------------------------------------------------
	 Reference Energy          =   -1685.6485834558898205 [Eh]
	 Singles Energy            =      -0.0000000000000000 [Eh]
	 Same-Spin Energy          =      -0.5436562950823418 [Eh]
	 Opposite-Spin Energy      =      -1.6250941388652027 [Eh]
	 Correlation Energy        =      -2.1687504339475447 [Eh]
	 Total Energy              =   -1687.8173338898373004 [Eh]
	-----------------------------------------------------------
	 ================> DF-SCS-MP2 Energies <================== 
	-----------------------------------------------------------
	 SCS Same-Spin Scale       =       0.3333333333333333 [-]
	 SCS Opposite-Spin Scale   =       1.2000000000000000 [-]
	 SCS Same-Spin Energy      =      -0.1812187650274473 [Eh]
	 SCS Opposite-Spin Energy  =      -1.9501129666382431 [Eh]
	 SCS Correlation Energy    =      -2.1313317316656901 [Eh]
	 SCS Total Energy          =   -1687.7799151875556163 [Eh]
	-----------------------------------------------------------



Properties will be evaluated at   0.000000,  -0.000000,   0.000000 [a0]

Properties computed using the MP2 density matrix

  Nuclear Dipole Moment: [e a0]
     X:    17.5031      Y:     4.1832      Z:    -0.1283

  Electronic Dipole Moment: [e a0]
     X:   -16.6657      Y:    -4.0902      Z:    -0.0016

  Dipole Moment: [e a0]
     X:     0.8374      Y:     0.0931      Z:    -0.1299     Total:     0.8525

  Dipole Moment: [D]
     X:     2.1286      Y:     0.2365      Z:    -0.3302     Total:     2.1670


*** tstop() called on node144.bme.utexas.edu at Sun Mar 28 05:34:43 2021
Module time:
	user time   =    1716.11 seconds =      28.60 minutes
	system time =      64.98 seconds =       1.08 minutes
	total time  =        282 seconds =       4.70 minutes
Total time:
	user time   =    2200.03 seconds =      36.67 minutes
	system time =     116.80 seconds =       1.95 minutes
	total time  =        385 seconds =       6.42 minutes

    Psi4 stopped on: Sunday, 28 March 2021 05:34AM
    Psi4 wall time for execution: 0:06:25.97

*** Psi4 exiting successfully. Buy a developer a beer!
