
    -----------------------------------------------------------------------
          Psi4: An Open-Source Ab Initio Electronic Structure Package
                               Psi4 1.3.2 release

                         Git: Rev {HEAD} ecbda83 


    R. M. Parrish, L. A. Burns, D. G. A. Smith, A. C. Simmonett,
    A. E. DePrince III, E. G. Hohenstein, U. Bozkaya, A. Yu. Sokolov,
    R. Di Remigio, R. M. Richard, J. F. Gonthier, A. M. James,
    H. R. McAlexander, A. Kumar, M. Saitow, X. Wang, B. P. Pritchard,
    P. Verma, H. F. Schaefer III, K. Patkowski, R. A. King, E. F. Valeev,
    F. A. Evangelista, J. M. Turney, T. D. Crawford, and C. D. Sherrill,
    J. Chem. Theory Comput. 13(7) pp 3185--3197 (2017).
    (doi: 10.1021/acs.jctc.7b00174)


                         Additional Contributions by
    P. Kraus, H. Kruse, M. H. Lechner, M. C. Schieber, R. A. Shaw,
    A. Alenaizan, R. Galvelis, Z. L. Glick, S. Lehtola, and J. P. Misiewicz

    -----------------------------------------------------------------------


    Psi4 started on: Sunday, 28 March 2021 06:39AM

    Process ID: 66502
    Host:       node144.bme.utexas.edu
    PSIDATADIR: /home/xy3866/psi4conda/share/psi4
    Memory:     500.0 MiB
    Threads:    8
    
  ==> Input File <==

--------------------------------------------------------------------------
#psi4
#
memory 32 gb

molecule  {
0 1
 Cl       -1.5623360     0.9145460    -1.3283100
 Cl       -1.8035240    -1.6987570    -0.1947580
 Cl       -1.5102210     0.5498050     1.5667370
  C        0.5425250    -0.2377090    -0.0306430
  C        1.3583330     0.9211750     0.0000800
  C        1.1449540    -1.5037020    -0.0241300
  C        2.7480770     0.7402810    -0.0004710
  C       -0.9732360    -0.1289890    -0.0024010
  C        0.8627320     2.3487980    -0.0134970
  C        2.5304820    -1.6481190    -0.0246080
  C        3.3427940    -0.5189970    -0.0108730
  H        0.5328240    -2.3960530    -0.0303120
  H        3.3795310     1.6262990     0.0194810
  H        0.6542430     2.6831410    -1.0334720
  H       -0.0421520     2.4939510     0.5743960
  H        1.6388160     2.9983140     0.4002560
  H        2.9645722    -2.6440884    -0.1247647
  H        4.4259130    -0.6124980    -0.0086910
units angstrom
no_reorient  #important for SAPT in psi4, default
symmetry c1  #important for SAPT in psi4, default
}

set PROPERTIES_ORIGIN ["COM"]
properties('MP2/aug-cc-pvtz', properties = ['dipole'])
--------------------------------------------------------------------------

  Memory set to  29.802 GiB by Python driver.
    SCF Algorithm Type (re)set to DF.

*** tstart() called on node144.bme.utexas.edu
*** at Sun Mar 28 06:39:42 2021

   => Loading Basis Set <=

    Name: AUG-CC-PVTZ
    Role: ORBITAL
    Keyword: BASIS
    atoms 1-3   entry CL         line   984 file /home/xy3866/psi4conda/share/psi4/basis/aug-cc-pvtz.gbs 
    atoms 4-11  entry C          line   235 file /home/xy3866/psi4conda/share/psi4/basis/aug-cc-pvtz.gbs 
    atoms 12-18 entry H          line    36 file /home/xy3866/psi4conda/share/psi4/basis/aug-cc-pvtz.gbs 


         ---------------------------------------------------------
                                   SCF
               by Justin Turney, Rob Parrish, Andy Simmonett
                          and Daniel G. A. Smith
                              RHF Reference
                        8 Threads,  30517 MiB Core
         ---------------------------------------------------------

  ==> Geometry <==

    Molecular point group: c1
    Full point group: C1

    Geometry (in Angstrom), charge = 0, multiplicity = 1:

       Center              X                  Y                   Z               Mass       
    ------------   -----------------  -----------------  -----------------  -----------------
         CL          -1.474958119891     0.935427385214    -1.328520821938    34.968852682000
         CL          -1.716146119891    -1.677875614786    -0.194968821938    34.968852682000
         CL          -1.422843119891     0.570686385214     1.566526178062    34.968852682000
         C            0.629902880109    -0.216827614786    -0.030853821938    12.000000000000
         C            1.445710880109     0.942056385214    -0.000130821938    12.000000000000
         C            1.232331880109    -1.482820614786    -0.024340821938    12.000000000000
         C            2.835454880109     0.761162385214    -0.000681821938    12.000000000000
         C           -0.885858119891    -0.108107614786    -0.002611821938    12.000000000000
         C            0.950109880109     2.369679385214    -0.013707821938    12.000000000000
         C            2.617859880109    -1.627237614786    -0.024818821938    12.000000000000
         C            3.430171880109    -0.498115614786    -0.011083821938    12.000000000000
         H            0.620201880109    -2.375171614786    -0.030522821938     1.007825032230
         H            3.466908880109     1.647180385214     0.019270178062     1.007825032230
         H            0.741620880109     2.704022385214    -1.033682821938     1.007825032230
         H            0.045225880109     2.514832385214     0.574185178062     1.007825032230
         H            1.726193880109     3.019195385214     0.400045178062     1.007825032230
         H            3.051950080109    -2.623207014786    -0.124975521938     1.007825032230
         H            4.513290880109    -0.591616614786    -0.008901821938     1.007825032230

  Running in c1 symmetry.

  Rotational constants: A =      0.03539  B =      0.02020  C =      0.01669 [cm^-1]
  Rotational constants: A =   1060.87601  B =    605.57954  C =    500.39558 [MHz]
  Nuclear repulsion =  901.435402147787272

  Charge       = 0
  Multiplicity = 1
  Electrons    = 106
  Nalpha       = 53
  Nbeta        = 53

  ==> Algorithm <==

  SCF Algorithm Type is DF.
  DIIS enabled.
  MOM disabled.
  Fractional occupation disabled.
  Guess Type is SAD.
  Energy threshold   = 1.00e-10
  Density threshold  = 1.00e-10
  Integral threshold = 0.00e+00

  ==> Primary Basis <==

  Basis Set: AUG-CC-PVTZ
    Blend: AUG-CC-PVTZ
    Number of shells: 223
    Number of basis function: 679
    Number of Cartesian functions: 792
    Spherical Harmonics?: true
    Max angular momentum: 3

   => Loading Basis Set <=

    Name: (AUG-CC-PVTZ AUX)
    Role: JKFIT
    Keyword: DF_BASIS_SCF
    atoms 1-3   entry CL         line   816 file /home/xy3866/psi4conda/share/psi4/basis/aug-cc-pvtz-jkfit.gbs 
    atoms 4-11  entry C          line   162 file /home/xy3866/psi4conda/share/psi4/basis/aug-cc-pvtz-jkfit.gbs 
    atoms 12-18 entry H          line    70 file /home/xy3866/psi4conda/share/psi4/basis/aug-cc-pvtz-jkfit.gbs 

  ==> Pre-Iterations <==

   -------------------------------------------------------
    Irrep   Nso     Nmo     Nalpha   Nbeta   Ndocc  Nsocc
   -------------------------------------------------------
     A        679     679       0       0       0       0
   -------------------------------------------------------
    Total     679     679      53      53      53       0
   -------------------------------------------------------

  ==> Integral Setup <==

  DFHelper Memory: AOs need 5.391 GiB; user supplied 22.352 GiB. Using in-core AOs.

  ==> MemDFJK: Density-Fitted J/K Matrices <==

    J tasked:                   Yes
    K tasked:                   Yes
    wK tasked:                   No
    OpenMP threads:               8
    Memory [MiB]:             22888
    Algorithm:                 Disk
    Schwarz Cutoff:           1E-12
    Mask sparsity (%):       3.9649
    Fitting Condition:        1E-10

   => Auxiliary Basis Set <=

  Basis Set: (AUG-CC-PVTZ AUX)
    Blend: AUG-CC-PVTZ-JKFIT
    Number of shells: 464
    Number of basis function: 1592
    Number of Cartesian functions: 1973
    Spherical Harmonics?: true
    Max angular momentum: 4

  Minimum eigenvalue in the overlap matrix is 5.2997470241E-07.
  Using Symmetric Orthogonalization.

  SCF Guess: Superposition of Atomic Densities via on-the-fly atomic UHF.

  ==> Iterations <==

                           Total Energy        Delta E     RMS |[F,P]|

   @DF-RHF iter SAD: -1685.60746730792425   -1.68561e+03   0.00000e+00 
   @DF-RHF iter   1: -1685.34987535742448    2.57592e-01   1.02983e-03 DIIS
   @DF-RHF iter   2: -1685.56752310044089   -2.17648e-01   5.88824e-04 DIIS
   @DF-RHF iter   3: -1685.64254465116323   -7.50216e-02   1.37078e-04 DIIS
   @DF-RHF iter   4: -1685.64785662791837   -5.31198e-03   6.62167e-05 DIIS
   @DF-RHF iter   5: -1685.64908855515387   -1.23193e-03   1.36027e-05 DIIS
   @DF-RHF iter   6: -1685.64916556325079   -7.70081e-05   5.59989e-06 DIIS
   @DF-RHF iter   7: -1685.64918018932735   -1.46261e-05   1.88325e-06 DIIS
   @DF-RHF iter   8: -1685.64918257510931   -2.38578e-06   8.43316e-07 DIIS
   @DF-RHF iter   9: -1685.64918325797521   -6.82866e-07   4.10141e-07 DIIS
   @DF-RHF iter  10: -1685.64918346869445   -2.10719e-07   1.80442e-07 DIIS
   @DF-RHF iter  11: -1685.64918351299775   -4.43033e-08   8.08334e-08 DIIS
   @DF-RHF iter  12: -1685.64918351813935   -5.14160e-09   2.53346e-08 DIIS
   @DF-RHF iter  13: -1685.64918351863412   -4.94765e-10   5.98180e-09 DIIS
   @DF-RHF iter  14: -1685.64918351864685   -1.27329e-11   2.18681e-09 DIIS
   @DF-RHF iter  15: -1685.64918351865731   -1.04592e-11   8.23242e-10 DIIS
   @DF-RHF iter  16: -1685.64918351866118   -3.86535e-12   3.73577e-10 DIIS
   @DF-RHF iter  17: -1685.64918351865617    5.00222e-12   1.65741e-10 DIIS
   @DF-RHF iter  18: -1685.64918351864299    1.31877e-11   7.76210e-11 DIIS
  Energy and wave function converged.


  ==> Post-Iterations <==

    Orbital Energies [Eh]
    ---------------------

    Doubly Occupied:                                                      

       1A   -104.858050     2A   -104.855659     3A   -104.855601  
       4A    -11.442405     5A    -11.274023     6A    -11.267508  
       7A    -11.253198     8A    -11.251336     9A    -11.245137  
      10A    -11.244200    11A    -11.229950    12A    -10.582639  
      13A    -10.580298    14A    -10.580215    15A     -8.049331  
      16A     -8.047300    17A     -8.047287    18A     -8.047005  
      19A     -8.046914    20A     -8.044940    21A     -8.044903  
      22A     -8.044859    23A     -8.044810    24A     -1.246362  
      25A     -1.164666    26A     -1.106939    27A     -1.105002  
      28A     -1.058046    29A     -1.037684    30A     -0.951238  
      31A     -0.882464    32A     -0.824862    33A     -0.788669  
      34A     -0.702847    35A     -0.667253    36A     -0.652369  
      37A     -0.627478    38A     -0.617523    39A     -0.599963  
      40A     -0.587009    41A     -0.581554    42A     -0.555284  
      43A     -0.521238    44A     -0.507135    45A     -0.505304  
      46A     -0.494914    47A     -0.488884    48A     -0.463975  
      49A     -0.455632    50A     -0.447283    51A     -0.441765  
      52A     -0.351084    53A     -0.338910  

    Virtual:                                                              

      54A      0.026616    55A      0.031752    56A      0.037920  
      57A      0.046508    58A      0.048242    59A      0.053745  
      60A      0.069236    61A      0.078306    62A      0.080592  
      63A      0.083747    64A      0.087023    65A      0.092353  
      66A      0.098384    67A      0.100232    68A      0.101764  
      69A      0.111368    70A      0.115292    71A      0.117982  
      72A      0.122772    73A      0.126680    74A      0.130017  
      75A      0.132755    76A      0.137304    77A      0.140209  
      78A      0.141205    79A      0.147026    80A      0.148886  
      81A      0.156692    82A      0.161648    83A      0.164993  
      84A      0.167838    85A      0.170298    86A      0.176863  
      87A      0.181730    88A      0.184949    89A      0.186819  
      90A      0.187703    91A      0.194445    92A      0.201515  
      93A      0.204776    94A      0.215426    95A      0.221630  
      96A      0.223950    97A      0.225139    98A      0.232918  
      99A      0.236837   100A      0.244367   101A      0.248306  
     102A      0.256927   103A      0.260195   104A      0.265010  
     105A      0.267217   106A      0.273155   107A      0.280306  
     108A      0.286697   109A      0.290221   110A      0.306013  
     111A      0.308880   112A      0.310330   113A      0.315247  
     114A      0.321168   115A      0.323487   116A      0.329772  
     117A      0.336905   118A      0.341048   119A      0.347798  
     120A      0.353949   121A      0.357821   122A      0.361885  
     123A      0.365570   124A      0.373241   125A      0.378092  
     126A      0.382198   127A      0.388951   128A      0.390252  
     129A      0.394338   130A      0.400669   131A      0.405731  
     132A      0.413092   133A      0.415857   134A      0.417882  
     135A      0.419422   136A      0.425134   137A      0.429799  
     138A      0.433331   139A      0.439416   140A      0.445609  
     141A      0.452416   142A      0.457793   143A      0.460306  
     144A      0.460833   145A      0.466643   146A      0.469514  
     147A      0.474736   148A      0.478484   149A      0.483455  
     150A      0.490625   151A      0.492897   152A      0.493311  
     153A      0.496634   154A      0.504268   155A      0.511635  
     156A      0.515645   157A      0.520022   158A      0.525928  
     159A      0.527002   160A      0.530988   161A      0.535220  
     162A      0.539174   163A      0.539992   164A      0.546647  
     165A      0.549941   166A      0.556518   167A      0.559479  
     168A      0.569553   169A      0.578693   170A      0.580254  
     171A      0.589823   172A      0.592476   173A      0.598361  
     174A      0.603325   175A      0.616892   176A      0.624180  
     177A      0.631996   178A      0.637292   179A      0.644407  
     180A      0.649082   181A      0.652727   182A      0.663080  
     183A      0.672352   184A      0.686454   185A      0.689131  
     186A      0.695414   187A      0.696261   188A      0.711537  
     189A      0.713324   190A      0.720828   191A      0.728129  
     192A      0.734418   193A      0.740244   194A      0.747305  
     195A      0.749218   196A      0.754269   197A      0.758581  
     198A      0.761688   199A      0.780600   200A      0.791144  
     201A      0.797459   202A      0.801475   203A      0.810662  
     204A      0.816111   205A      0.826475   206A      0.832686  
     207A      0.840138   208A      0.843281   209A      0.845683  
     210A      0.850488   211A      0.856486   212A      0.865427  
     213A      0.869081   214A      0.870349   215A      0.872464  
     216A      0.879977   217A      0.885156   218A      0.888373  
     219A      0.890141   220A      0.901629   221A      0.908404  
     222A      0.915438   223A      0.919203   224A      0.923919  
     225A      0.927940   226A      0.936082   227A      0.937975  
     228A      0.944236   229A      0.950758   230A      0.956261  
     231A      0.960921   232A      0.962192   233A      0.968911  
     234A      0.974336   235A      0.981766   236A      0.983575  
     237A      0.987355   238A      0.999374   239A      1.003681  
     240A      1.007762   241A      1.009595   242A      1.013284  
     243A      1.015751   244A      1.025240   245A      1.032080  
     246A      1.037483   247A      1.039964   248A      1.040549  
     249A      1.044456   250A      1.054045   251A      1.065479  
     252A      1.072685   253A      1.075348   254A      1.080109  
     255A      1.086085   256A      1.092057   257A      1.093805  
     258A      1.101096   259A      1.108688   260A      1.110229  
     261A      1.114448   262A      1.127777   263A      1.129473  
     264A      1.138169   265A      1.142970   266A      1.147187  
     267A      1.148180   268A      1.162624   269A      1.165190  
     270A      1.166289   271A      1.173025   272A      1.182027  
     273A      1.187046   274A      1.196848   275A      1.200680  
     276A      1.210932   277A      1.216976   278A      1.221199  
     279A      1.227598   280A      1.238593   281A      1.243403  
     282A      1.249961   283A      1.263110   284A      1.268564  
     285A      1.277002   286A      1.279238   287A      1.285679  
     288A      1.297231   289A      1.299294   290A      1.303223  
     291A      1.313570   292A      1.317438   293A      1.325672  
     294A      1.329388   295A      1.349175   296A      1.360290  
     297A      1.367405   298A      1.374871   299A      1.384934  
     300A      1.391835   301A      1.397706   302A      1.407704  
     303A      1.423494   304A      1.429554   305A      1.435961  
     306A      1.438993   307A      1.443731   308A      1.449827  
     309A      1.456874   310A      1.465790   311A      1.476896  
     312A      1.489885   313A      1.503983   314A      1.505474  
     315A      1.512103   316A      1.524567   317A      1.537061  
     318A      1.540554   319A      1.547902   320A      1.554506  
     321A      1.558716   322A      1.575361   323A      1.584845  
     324A      1.588720   325A      1.597446   326A      1.608092  
     327A      1.619335   328A      1.630882   329A      1.635024  
     330A      1.640948   331A      1.653322   332A      1.655643  
     333A      1.671034   334A      1.678324   335A      1.681043  
     336A      1.691694   337A      1.698389   338A      1.706845  
     339A      1.722423   340A      1.723341   341A      1.739172  
     342A      1.742408   343A      1.747829   344A      1.752583  
     345A      1.767670   346A      1.770609   347A      1.781537  
     348A      1.791504   349A      1.793470   350A      1.799726  
     351A      1.801949   352A      1.809261   353A      1.817484  
     354A      1.830315   355A      1.835636   356A      1.845574  
     357A      1.856646   358A      1.859799   359A      1.864830  
     360A      1.882938   361A      1.888325   362A      1.892708  
     363A      1.895085   364A      1.902449   365A      1.911855  
     366A      1.920424   367A      1.927949   368A      1.932371  
     369A      1.944220   370A      1.949252   371A      1.958428  
     372A      1.968346   373A      1.980102   374A      1.992172  
     375A      1.998951   376A      2.017601   377A      2.020779  
     378A      2.032750   379A      2.038113   380A      2.040859  
     381A      2.050256   382A      2.058503   383A      2.064008  
     384A      2.073039   385A      2.084142   386A      2.090880  
     387A      2.107519   388A      2.118484   389A      2.123227  
     390A      2.130938   391A      2.144873   392A      2.156539  
     393A      2.167411   394A      2.172627   395A      2.180402  
     396A      2.194767   397A      2.204306   398A      2.208243  
     399A      2.224932   400A      2.241188   401A      2.250511  
     402A      2.264416   403A      2.270774   404A      2.281258  
     405A      2.293860   406A      2.302607   407A      2.319965  
     408A      2.330045   409A      2.336159   410A      2.349726  
     411A      2.358391   412A      2.390711   413A      2.408039  
     414A      2.429643   415A      2.430363   416A      2.443119  
     417A      2.460509   418A      2.480227   419A      2.498213  
     420A      2.512649   421A      2.536142   422A      2.546622  
     423A      2.553787   424A      2.596626   425A      2.604668  
     426A      2.627463   427A      2.656191   428A      2.679299  
     429A      2.686114   430A      2.702670   431A      2.704967  
     432A      2.712210   433A      2.726350   434A      2.734135  
     435A      2.762840   436A      2.776508   437A      2.777263  
     438A      2.784724   439A      2.801311   440A      2.808789  
     441A      2.822587   442A      2.826838   443A      2.849877  
     444A      2.861609   445A      2.887611   446A      2.898146  
     447A      2.933719   448A      2.941666   449A      2.963147  
     450A      2.992452   451A      3.001913   452A      3.013394  
     453A      3.042636   454A      3.076889   455A      3.094315  
     456A      3.110699   457A      3.111155   458A      3.132717  
     459A      3.147367   460A      3.157746   461A      3.160511  
     462A      3.188332   463A      3.213250   464A      3.217048  
     465A      3.231635   466A      3.238535   467A      3.246784  
     468A      3.250553   469A      3.258485   470A      3.265569  
     471A      3.268645   472A      3.290144   473A      3.299549  
     474A      3.311090   475A      3.315659   476A      3.321846  
     477A      3.329039   478A      3.335813   479A      3.350438  
     480A      3.357870   481A      3.361717   482A      3.376742  
     483A      3.379117   484A      3.393054   485A      3.400724  
     486A      3.418925   487A      3.424742   488A      3.434750  
     489A      3.440093   490A      3.461544   491A      3.467755  
     492A      3.472161   493A      3.480046   494A      3.486673  
     495A      3.500857   496A      3.514704   497A      3.524546  
     498A      3.526265   499A      3.539860   500A      3.547811  
     501A      3.561150   502A      3.563459   503A      3.581790  
     504A      3.588683   505A      3.594215   506A      3.598516  
     507A      3.610640   508A      3.639646   509A      3.644466  
     510A      3.661002   511A      3.664307   512A      3.681821  
     513A      3.703084   514A      3.714854   515A      3.723047  
     516A      3.731198   517A      3.746252   518A      3.759305  
     519A      3.766282   520A      3.778676   521A      3.781430  
     522A      3.795517   523A      3.802711   524A      3.817113  
     525A      3.840430   526A      3.849834   527A      3.852946  
     528A      3.870159   529A      3.883191   530A      3.892248  
     531A      3.898997   532A      3.920445   533A      3.929339  
     534A      3.933920   535A      3.945720   536A      3.968872  
     537A      3.978752   538A      3.984955   539A      3.988073  
     540A      4.002745   541A      4.014640   542A      4.033681  
     543A      4.037925   544A      4.045551   545A      4.053198  
     546A      4.056875   547A      4.071437   548A      4.082609  
     549A      4.102756   550A      4.113083   551A      4.131569  
     552A      4.134102   553A      4.157396   554A      4.159043  
     555A      4.172241   556A      4.189203   557A      4.204516  
     558A      4.208809   559A      4.238480   560A      4.243694  
     561A      4.273553   562A      4.275229   563A      4.278040  
     564A      4.282935   565A      4.301466   566A      4.311593  
     567A      4.341994   568A      4.359145   569A      4.365393  
     570A      4.378458   571A      4.382725   572A      4.392295  
     573A      4.395280   574A      4.410832   575A      4.416686  
     576A      4.435118   577A      4.436965   578A      4.447370  
     579A      4.455489   580A      4.470911   581A      4.474146  
     582A      4.505245   583A      4.523439   584A      4.543568  
     585A      4.558041   586A      4.587623   587A      4.592535  
     588A      4.615693   589A      4.625329   590A      4.648969  
     591A      4.668930   592A      4.688523   593A      4.703571  
     594A      4.725747   595A      4.736977   596A      4.746028  
     597A      4.784251   598A      4.786860   599A      4.790786  
     600A      4.800963   601A      4.808726   602A      4.833290  
     603A      4.846136   604A      4.865076   605A      4.894850  
     606A      4.913978   607A      4.943993   608A      4.949341  
     609A      4.967026   610A      4.973888   611A      4.987940  
     612A      5.015574   613A      5.016516   614A      5.070081  
     615A      5.083553   616A      5.100641   617A      5.114958  
     618A      5.125211   619A      5.131502   620A      5.147371  
     621A      5.155467   622A      5.157461   623A      5.200236  
     624A      5.207611   625A      5.236195   626A      5.249322  
     627A      5.267203   628A      5.276253   629A      5.311756  
     630A      5.328101   631A      5.351742   632A      5.382171  
     633A      5.416793   634A      5.450092   635A      5.467368  
     636A      5.488698   637A      5.499467   638A      5.523951  
     639A      5.599483   640A      5.617650   641A      5.679947  
     642A      5.693756   643A      5.740662   644A      5.764477  
     645A      5.774699   646A      5.797576   647A      5.861224  
     648A      5.881182   649A      6.049271   650A      6.084588  
     651A      6.105590   652A      6.131466   653A      6.180080  
     654A      6.196751   655A      6.237143   656A      6.245977  
     657A      6.303902   658A      6.322347   659A      6.436135  
     660A      6.486460   661A      6.505536   662A      6.664831  
     663A      6.808506   664A      6.820216   665A      6.922588  
     666A      6.962105   667A      7.072441   668A      7.233941  
     669A      7.979258   670A      8.109860   671A      8.419394  
     672A     15.658168   673A     16.155314   674A     16.665662  
     675A     18.487012   676A     19.144748   677A     19.733396  
     678A     19.953865   679A     20.858774  

    Final Occupation by Irrep:
              A 
    DOCC [    53 ]

  @DF-RHF Final Energy: -1685.64918351864299

   => Energetics <=

    Nuclear Repulsion Energy =            901.4354021477872720
    One-Electron Energy =               -4114.7473661575068036
    Two-Electron Energy =                1527.6627804910763189
    Total Energy =                      -1685.6491835186429853

Computation Completed

*** tstop() called on node144.bme.utexas.edu at Sun Mar 28 06:41:26 2021
Module time:
	user time   =     479.63 seconds =       7.99 minutes
	system time =      52.56 seconds =       0.88 minutes
	total time  =        104 seconds =       1.73 minutes
Total time:
	user time   =     479.63 seconds =       7.99 minutes
	system time =      52.56 seconds =       0.88 minutes
	total time  =        104 seconds =       1.73 minutes
   => Loading Basis Set <=

    Name: (AUG-CC-PVTZ AUX)
    Role: RIFIT
    Keyword: DF_BASIS_MP2
    atoms 1-3   entry CL         line   742 file /home/xy3866/psi4conda/share/psi4/basis/aug-cc-pvtz-ri.gbs 
    atoms 4-11  entry C          line   148 file /home/xy3866/psi4conda/share/psi4/basis/aug-cc-pvtz-ri.gbs 
    atoms 12-18 entry H          line    30 file /home/xy3866/psi4conda/share/psi4/basis/aug-cc-pvtz-ri.gbs 


*** tstart() called on node144.bme.utexas.edu
*** at Sun Mar 28 06:41:26 2021


  //>>>>>>>>>>>>>>>>>>>>>>>>>>>>>>>>>>>//
  //               DFMP2               //
  //<<<<<<<<<<<<<<<<<<<<<<<<<<<<<<<<<<<//

	 --------------------------------------------------------
	                          DF-MP2                         
	      2nd-Order Density-Fitted Moller-Plesset Theory     
	              RMP2 Wavefunction,   8 Threads             
	                                                         
	        Rob Parrish, Justin Turney, Andy Simmonett,      
	           Ed Hohenstein, and C. David Sherrill          
	 --------------------------------------------------------

   => Auxiliary Basis Set <=

  Basis Set: (AUG-CC-PVTZ AUX)
    Blend: AUG-CC-PVTZ-RI
    Number of shells: 433
    Number of basis function: 1611
    Number of Cartesian functions: 2046
    Spherical Harmonics?: true
    Max angular momentum: 4

	 --------------------------------------------------------
	                 NBF =   679, NAUX =  1611
	 --------------------------------------------------------
	   CLASS    FOCC     OCC    AOCC    AVIR     VIR    FVIR
	   PAIRS       0      53      53     626     626       0
	 --------------------------------------------------------

  DFHelper Memory: AOs need 5.391 GiB; user supplied 22.352 GiB. Using in-core AOs.


         ------------------------------------------------------------
                                     CPHF                           
                                  Rob Parrish                       
         ------------------------------------------------------------

  ==> Geometry <==

    Molecular point group: c1
    Full point group: C1

    Geometry (in Angstrom), charge = 0, multiplicity = 1:

       Center              X                  Y                   Z               Mass       
    ------------   -----------------  -----------------  -----------------  -----------------
         CL          -1.474958119891     0.935427385214    -1.328520821938    34.968852682000
         CL          -1.716146119891    -1.677875614786    -0.194968821938    34.968852682000
         CL          -1.422843119891     0.570686385214     1.566526178062    34.968852682000
         C            0.629902880109    -0.216827614786    -0.030853821938    12.000000000000
         C            1.445710880109     0.942056385214    -0.000130821938    12.000000000000
         C            1.232331880109    -1.482820614786    -0.024340821938    12.000000000000
         C            2.835454880109     0.761162385214    -0.000681821938    12.000000000000
         C           -0.885858119891    -0.108107614786    -0.002611821938    12.000000000000
         C            0.950109880109     2.369679385214    -0.013707821938    12.000000000000
         C            2.617859880109    -1.627237614786    -0.024818821938    12.000000000000
         C            3.430171880109    -0.498115614786    -0.011083821938    12.000000000000
         H            0.620201880109    -2.375171614786    -0.030522821938     1.007825032230
         H            3.466908880109     1.647180385214     0.019270178062     1.007825032230
         H            0.741620880109     2.704022385214    -1.033682821938     1.007825032230
         H            0.045225880109     2.514832385214     0.574185178062     1.007825032230
         H            1.726193880109     3.019195385214     0.400045178062     1.007825032230
         H            3.051950080109    -2.623207014786    -0.124975521938     1.007825032230
         H            4.513290880109    -0.591616614786    -0.008901821938     1.007825032230

  Nuclear repulsion =  901.435402147787272
  Reference energy  = -1685.649183518642985

  ==> Basis Set <==

  Basis Set: AUG-CC-PVTZ
    Blend: AUG-CC-PVTZ
    Number of shells: 223
    Number of basis function: 679
    Number of Cartesian functions: 792
    Spherical Harmonics?: true
    Max angular momentum: 3

  ==> CGRSolver (by Rob Parrish) <==

   Number of roots    =         1
   Preconditioning    =    JACOBI
   Convergence cutoff =     1E-06
   Maximum iterations =       100

  ==> CPHFRHamiltonian (by Rob Parrish) <== 

  ==> MemDFJK: Density-Fitted J/K Matrices <==

    J tasked:                   Yes
    K tasked:                   Yes
    wK tasked:                   No
    OpenMP threads:               8
    Memory [MiB]:             22888
    Algorithm:                 Disk
    Schwarz Cutoff:           1E-12
    Mask sparsity (%):       3.9649
    Fitting Condition:        1E-10

   => Auxiliary Basis Set <=

  Basis Set: (AUG-CC-PVTZ AUX)
    Blend: AUG-CC-PVTZ-JKFIT
    Number of shells: 464
    Number of basis function: 1592
    Number of Cartesian functions: 1973
    Spherical Harmonics?: true
    Max angular momentum: 4

  ==> CPHF Iterations <==

  => Iterations <=

             Iter  Converged  Remaining    Residual
  CGR           1          0          1   1.145E-01
  CGR           2          0          1   3.099E-02
  CGR           3          0          1   1.378E-02
  CGR           4          0          1   7.448E-03
  CGR           5          0          1   3.176E-03
  CGR           6          0          1   1.368E-03
  CGR           7          0          1   4.028E-04
  CGR           8          0          1   1.252E-04
  CGR           9          0          1   3.821E-05
  CGR          10          0          1   1.308E-05
  CGR          11          0          1   5.553E-06
  CGR          12          0          1   2.077E-06
  CGR          13          0          1   1.026E-06
  CGR          14          1          0   3.291E-07

    CGRSolver converged.

	-----------------------------------------------------------
	 ==================> DF-MP2 Energies <==================== 
	-----------------------------------------------------------
	 Reference Energy          =   -1685.6491835186429853 [Eh]
	 Singles Energy            =      -0.0000000000000000 [Eh]
	 Same-Spin Energy          =      -0.5435752400748142 [Eh]
	 Opposite-Spin Energy      =      -1.6250234186744614 [Eh]
	 Correlation Energy        =      -2.1685986587492758 [Eh]
	 Total Energy              =   -1687.8177821773922460 [Eh]
	-----------------------------------------------------------
	 ================> DF-SCS-MP2 Energies <================== 
	-----------------------------------------------------------
	 SCS Same-Spin Scale       =       0.3333333333333333 [-]
	 SCS Opposite-Spin Scale   =       1.2000000000000000 [-]
	 SCS Same-Spin Energy      =      -0.1811917466916047 [Eh]
	 SCS Opposite-Spin Energy  =      -1.9500281024093535 [Eh]
	 SCS Correlation Energy    =      -2.1312198491009582 [Eh]
	 SCS Total Energy          =   -1687.7804033677439293 [Eh]
	-----------------------------------------------------------



Properties will be evaluated at   0.000000,  -0.000000,   0.000000 [a0]

Properties computed using the MP2 density matrix

  Nuclear Dipole Moment: [e a0]
     X:    17.5034      Y:     4.1839      Z:    -0.2312

  Electronic Dipole Moment: [e a0]
     X:   -16.6657      Y:    -4.0900      Z:     0.1854

  Dipole Moment: [e a0]
     X:     0.8377      Y:     0.0939      Z:    -0.0458     Total:     0.8442

  Dipole Moment: [D]
     X:     2.1292      Y:     0.2388      Z:    -0.1165     Total:     2.1457


*** tstop() called on node144.bme.utexas.edu at Sun Mar 28 06:46:07 2021
Module time:
	user time   =    1710.09 seconds =      28.50 minutes
	system time =      65.35 seconds =       1.09 minutes
	total time  =        281 seconds =       4.68 minutes
Total time:
	user time   =    2189.91 seconds =      36.50 minutes
	system time =     117.91 seconds =       1.97 minutes
	total time  =        385 seconds =       6.42 minutes

    Psi4 stopped on: Sunday, 28 March 2021 06:46AM
    Psi4 wall time for execution: 0:06:25.54

*** Psi4 exiting successfully. Buy a developer a beer!
