
    -----------------------------------------------------------------------
          Psi4: An Open-Source Ab Initio Electronic Structure Package
                               Psi4 1.3.2 release

                         Git: Rev {HEAD} ecbda83 


    R. M. Parrish, L. A. Burns, D. G. A. Smith, A. C. Simmonett,
    A. E. DePrince III, E. G. Hohenstein, U. Bozkaya, A. Yu. Sokolov,
    R. Di Remigio, R. M. Richard, J. F. Gonthier, A. M. James,
    H. R. McAlexander, A. Kumar, M. Saitow, X. Wang, B. P. Pritchard,
    P. Verma, H. F. Schaefer III, K. Patkowski, R. A. King, E. F. Valeev,
    F. A. Evangelista, J. M. Turney, T. D. Crawford, and C. D. Sherrill,
    J. Chem. Theory Comput. 13(7) pp 3185--3197 (2017).
    (doi: 10.1021/acs.jctc.7b00174)


                         Additional Contributions by
    P. Kraus, H. Kruse, M. H. Lechner, M. C. Schieber, R. A. Shaw,
    A. Alenaizan, R. Galvelis, Z. L. Glick, S. Lehtola, and J. P. Misiewicz

    -----------------------------------------------------------------------


    Psi4 started on: Sunday, 28 March 2021 06:00AM

    Process ID: 41528
    Host:       node144.bme.utexas.edu
    PSIDATADIR: /home/xy3866/psi4conda/share/psi4
    Memory:     500.0 MiB
    Threads:    8
    
  ==> Input File <==

--------------------------------------------------------------------------
#psi4
#
memory 32 gb

molecule  {
0 1
 Cl       -1.5623360     0.9145460    -1.3283100
 Cl       -1.8035240    -1.6987570    -0.1947580
 Cl       -1.5102210     0.5498050     1.5667370
  C        0.5425250    -0.2377090    -0.0306430
  C        1.3583330     0.9211750     0.0000800
  C        1.1449540    -1.5037020    -0.0241300
  C        2.7480770     0.7402810    -0.0004710
  C       -0.9732360    -0.1289890    -0.0024010
  C        0.8621638     2.3485369     0.0364991
  C        2.5304820    -1.6481190    -0.0246080
  C        3.3427940    -0.5189970    -0.0108730
  H        0.5328240    -2.3960530    -0.0303120
  H        3.3795310     1.6262990     0.0194810
  H        0.6542430     2.6831410    -1.0334720
  H       -0.0421520     2.4939510     0.5743960
  H        1.6388160     2.9983140     0.4002560
  H        2.9642350    -2.6446820    -0.0247670
  H        4.4259130    -0.6124980    -0.0086910
units angstrom
no_reorient  #important for SAPT in psi4, default
symmetry c1  #important for SAPT in psi4, default
}

set PROPERTIES_ORIGIN ["COM"]
properties('MP2/aug-cc-pvtz', properties = ['dipole'])
--------------------------------------------------------------------------

  Memory set to  29.802 GiB by Python driver.
    SCF Algorithm Type (re)set to DF.

*** tstart() called on node144.bme.utexas.edu
*** at Sun Mar 28 06:00:50 2021

   => Loading Basis Set <=

    Name: AUG-CC-PVTZ
    Role: ORBITAL
    Keyword: BASIS
    atoms 1-3   entry CL         line   984 file /home/xy3866/psi4conda/share/psi4/basis/aug-cc-pvtz.gbs 
    atoms 4-11  entry C          line   235 file /home/xy3866/psi4conda/share/psi4/basis/aug-cc-pvtz.gbs 
    atoms 12-18 entry H          line    36 file /home/xy3866/psi4conda/share/psi4/basis/aug-cc-pvtz.gbs 


         ---------------------------------------------------------
                                   SCF
               by Justin Turney, Rob Parrish, Andy Simmonett
                          and Daniel G. A. Smith
                              RHF Reference
                        8 Threads,  30517 MiB Core
         ---------------------------------------------------------

  ==> Geometry <==

    Molecular point group: c1
    Full point group: C1

    Geometry (in Angstrom), charge = 0, multiplicity = 1:

       Center              X                  Y                   Z               Mass       
    ------------   -----------------  -----------------  -----------------  -----------------
         CL          -1.474923698884     0.935445328189    -1.331890358833    34.968852682000
         CL          -1.716111698884    -1.677857671811    -0.198338358833    34.968852682000
         CL          -1.422808698884     0.570704328189     1.563156641167    34.968852682000
         C            0.629937301116    -0.216809671811    -0.034223358833    12.000000000000
         C            1.445745301116     0.942074328189    -0.003500358833    12.000000000000
         C            1.232366301116    -1.482802671811    -0.027710358833    12.000000000000
         C            2.835489301116     0.761180328189    -0.004051358833    12.000000000000
         C           -0.885823698884    -0.108089671811    -0.005981358833    12.000000000000
         C            0.949576101116     2.369436228189     0.032918741167    12.000000000000
         C            2.617894301116    -1.627219671811    -0.028188358833    12.000000000000
         C            3.430206301116    -0.498097671811    -0.014453358833    12.000000000000
         H            0.620236301116    -2.375153671811    -0.033892358833     1.007825032230
         H            3.466943301116     1.647198328189     0.015900641167     1.007825032230
         H            0.741655301116     2.704040328189    -1.037052358833     1.007825032230
         H            0.045260301116     2.514850328189     0.570815641167     1.007825032230
         H            1.726228301116     3.019213328189     0.396675641167     1.007825032230
         H            3.051647301116    -2.623782671811    -0.028347358833     1.007825032230
         H            4.513325301116    -0.591598671811    -0.012271358833     1.007825032230

  Running in c1 symmetry.

  Rotational constants: A =      0.03539  B =      0.02020  C =      0.01669 [cm^-1]
  Rotational constants: A =   1060.91305  B =    605.60086  C =    500.40316 [MHz]
  Nuclear repulsion =  901.440974586247307

  Charge       = 0
  Multiplicity = 1
  Electrons    = 106
  Nalpha       = 53
  Nbeta        = 53

  ==> Algorithm <==

  SCF Algorithm Type is DF.
  DIIS enabled.
  MOM disabled.
  Fractional occupation disabled.
  Guess Type is SAD.
  Energy threshold   = 1.00e-10
  Density threshold  = 1.00e-10
  Integral threshold = 0.00e+00

  ==> Primary Basis <==

  Basis Set: AUG-CC-PVTZ
    Blend: AUG-CC-PVTZ
    Number of shells: 223
    Number of basis function: 679
    Number of Cartesian functions: 792
    Spherical Harmonics?: true
    Max angular momentum: 3

   => Loading Basis Set <=

    Name: (AUG-CC-PVTZ AUX)
    Role: JKFIT
    Keyword: DF_BASIS_SCF
    atoms 1-3   entry CL         line   816 file /home/xy3866/psi4conda/share/psi4/basis/aug-cc-pvtz-jkfit.gbs 
    atoms 4-11  entry C          line   162 file /home/xy3866/psi4conda/share/psi4/basis/aug-cc-pvtz-jkfit.gbs 
    atoms 12-18 entry H          line    70 file /home/xy3866/psi4conda/share/psi4/basis/aug-cc-pvtz-jkfit.gbs 

  ==> Pre-Iterations <==

   -------------------------------------------------------
    Irrep   Nso     Nmo     Nalpha   Nbeta   Ndocc  Nsocc
   -------------------------------------------------------
     A        679     679       0       0       0       0
   -------------------------------------------------------
    Total     679     679      53      53      53       0
   -------------------------------------------------------

  ==> Integral Setup <==

  DFHelper Memory: AOs need 5.391 GiB; user supplied 22.352 GiB. Using in-core AOs.

  ==> MemDFJK: Density-Fitted J/K Matrices <==

    J tasked:                   Yes
    K tasked:                   Yes
    wK tasked:                   No
    OpenMP threads:               8
    Memory [MiB]:             22888
    Algorithm:                 Disk
    Schwarz Cutoff:           1E-12
    Mask sparsity (%):       3.9641
    Fitting Condition:        1E-10

   => Auxiliary Basis Set <=

  Basis Set: (AUG-CC-PVTZ AUX)
    Blend: AUG-CC-PVTZ-JKFIT
    Number of shells: 464
    Number of basis function: 1592
    Number of Cartesian functions: 1973
    Spherical Harmonics?: true
    Max angular momentum: 4

  Minimum eigenvalue in the overlap matrix is 4.8372997825E-07.
  Using Symmetric Orthogonalization.

  SCF Guess: Superposition of Atomic Densities via on-the-fly atomic UHF.

  ==> Iterations <==

                           Total Energy        Delta E     RMS |[F,P]|

   @DF-RHF iter SAD: -1685.60588258347343   -1.68561e+03   0.00000e+00 
   @DF-RHF iter   1: -1685.34755020852776    2.58332e-01   1.03034e-03 DIIS
   @DF-RHF iter   2: -1685.56580860064832   -2.18258e-01   5.88996e-04 DIIS
   @DF-RHF iter   3: -1685.64087029686516   -7.50617e-02   1.37059e-04 DIIS
   @DF-RHF iter   4: -1685.64618213633457   -5.31184e-03   6.63171e-05 DIIS
   @DF-RHF iter   5: -1685.64741750395410   -1.23537e-03   1.35717e-05 DIIS
   @DF-RHF iter   6: -1685.64749417065104   -7.66667e-05   5.57393e-06 DIIS
   @DF-RHF iter   7: -1685.64750855115358   -1.43805e-05   1.85597e-06 DIIS
   @DF-RHF iter   8: -1685.64751083471901   -2.28357e-06   8.24417e-07 DIIS
   @DF-RHF iter   9: -1685.64751147445281   -6.39734e-07   3.99472e-07 DIIS
   @DF-RHF iter  10: -1685.64751167299391   -1.98541e-07   1.77413e-07 DIIS
   @DF-RHF iter  11: -1685.64751171618923   -4.31953e-08   8.01257e-08 DIIS
   @DF-RHF iter  12: -1685.64751172127126   -5.08203e-09   2.52884e-08 DIIS
   @DF-RHF iter  13: -1685.64751172179058   -5.19321e-10   5.99291e-09 DIIS
   @DF-RHF iter  14: -1685.64751172179467   -4.09273e-12   2.18613e-09 DIIS
   @DF-RHF iter  15: -1685.64751172180081   -6.13909e-12   8.13962e-10 DIIS
   @DF-RHF iter  16: -1685.64751172180559   -4.77485e-12   3.68019e-10 DIIS
   @DF-RHF iter  17: -1685.64751172180058    5.00222e-12   1.62001e-10 DIIS
   @DF-RHF iter  18: -1685.64751172179808    2.50111e-12   7.49171e-11 DIIS
  Energy and wave function converged.


  ==> Post-Iterations <==

    Orbital Energies [Eh]
    ---------------------

    Doubly Occupied:                                                      

       1A   -104.858053     2A   -104.855699     3A   -104.855601  
       4A    -11.442405     5A    -11.273819     6A    -11.268012  
       7A    -11.253160     8A    -11.251353     9A    -11.244461  
      10A    -11.244123    11A    -11.230703    12A    -10.582638  
      13A    -10.580289    14A    -10.580270    15A     -8.049330  
      16A     -8.047299    17A     -8.047286    18A     -8.046995  
      19A     -8.046970    20A     -8.044930    21A     -8.044915  
      22A     -8.044892    23A     -8.044866    24A     -1.246375  
      25A     -1.164660    26A     -1.106924    27A     -1.105052  
      28A     -1.058234    29A     -1.037638    30A     -0.951671  
      31A     -0.882562    32A     -0.825114    33A     -0.788990  
      34A     -0.703270    35A     -0.668588    36A     -0.652556  
      37A     -0.627406    38A     -0.617809    39A     -0.599183  
      40A     -0.586073    41A     -0.575988    42A     -0.563875  
      43A     -0.522161    44A     -0.507969    45A     -0.500660  
      46A     -0.495715    47A     -0.489537    48A     -0.464097  
      49A     -0.455617    50A     -0.448044    51A     -0.441588  
      52A     -0.351089    53A     -0.337793  

    Virtual:                                                              

      54A      0.026559    55A      0.031652    56A      0.037881  
      57A      0.046762    58A      0.048135    59A      0.053765  
      60A      0.069158    61A      0.078346    62A      0.081659  
      63A      0.083635    64A      0.086128    65A      0.093407  
      66A      0.098464    67A      0.100213    68A      0.101498  
      69A      0.110834    70A      0.115171    71A      0.117885  
      72A      0.123440    73A      0.126910    74A      0.129278  
      75A      0.132783    76A      0.137086    77A      0.139424  
      78A      0.142339    79A      0.146283    80A      0.149072  
      81A      0.156817    82A      0.161719    83A      0.164909  
      84A      0.168387    85A      0.170083    86A      0.176428  
      87A      0.180912    88A      0.185217    89A      0.186884  
      90A      0.187589    91A      0.194414    92A      0.201174  
      93A      0.204760    94A      0.215603    95A      0.222305  
      96A      0.223858    97A      0.225079    98A      0.232968  
      99A      0.237129   100A      0.244721   101A      0.247670  
     102A      0.257082   103A      0.260076   104A      0.265715  
     105A      0.267831   106A      0.273546   107A      0.279000  
     108A      0.287201   109A      0.291964   110A      0.305279  
     111A      0.308942   112A      0.310554   113A      0.316476  
     114A      0.320527   115A      0.324092   116A      0.328504  
     117A      0.335983   118A      0.341144   119A      0.348098  
     120A      0.353883   121A      0.359013   122A      0.362624  
     123A      0.365237   124A      0.373163   125A      0.378059  
     126A      0.382271   127A      0.388743   128A      0.390419  
     129A      0.394522   130A      0.400115   131A      0.405992  
     132A      0.412485   133A      0.417343   134A      0.420102  
     135A      0.420459   136A      0.424135   137A      0.429419  
     138A      0.433711   139A      0.439813   140A      0.446900  
     141A      0.451439   142A      0.458266   143A      0.461586  
     144A      0.463446   145A      0.465051   146A      0.470536  
     147A      0.477150   148A      0.479914   149A      0.483371  
     150A      0.490078   151A      0.491350   152A      0.495213  
     153A      0.497282   154A      0.504745   155A      0.510083  
     156A      0.514800   157A      0.520705   158A      0.523004  
     159A      0.524365   160A      0.535488   161A      0.535980  
     162A      0.539660   163A      0.544965   164A      0.548640  
     165A      0.551384   166A      0.556004   167A      0.557772  
     168A      0.566179   169A      0.577233   170A      0.583842  
     171A      0.589588   172A      0.591236   173A      0.599960  
     174A      0.603227   175A      0.617054   176A      0.627954  
     177A      0.635856   178A      0.636949   179A      0.642621  
     180A      0.649362   181A      0.658520   182A      0.662896  
     183A      0.672315   184A      0.685014   185A      0.689186  
     186A      0.697292   187A      0.708856   188A      0.711221  
     189A      0.715864   190A      0.723396   191A      0.727946  
     192A      0.730358   193A      0.737066   194A      0.744206  
     195A      0.750337   196A      0.754150   197A      0.762035  
     198A      0.763547   199A      0.778578   200A      0.788744  
     201A      0.799047   202A      0.799660   203A      0.809636  
     204A      0.815186   205A      0.828341   206A      0.830885  
     207A      0.838073   208A      0.843482   209A      0.847147  
     210A      0.848067   211A      0.855629   212A      0.861975  
     213A      0.869214   214A      0.871529   215A      0.872771  
     216A      0.882816   217A      0.885493   218A      0.889286  
     219A      0.890986   220A      0.901245   221A      0.909487  
     222A      0.917238   223A      0.921285   224A      0.923820  
     225A      0.926458   226A      0.935411   227A      0.939769  
     228A      0.941763   229A      0.948278   230A      0.954952  
     231A      0.959681   232A      0.960405   233A      0.971029  
     234A      0.976858   235A      0.982718   236A      0.983779  
     237A      0.985856   238A      0.997687   239A      1.002880  
     240A      1.005581   241A      1.010148   242A      1.013003  
     243A      1.016785   244A      1.026759   245A      1.030265  
     246A      1.034710   247A      1.038795   248A      1.041175  
     249A      1.054785   250A      1.056122   251A      1.065450  
     252A      1.069776   253A      1.073094   254A      1.079758  
     255A      1.086031   256A      1.093667   257A      1.095039  
     258A      1.101338   259A      1.105561   260A      1.109828  
     261A      1.111434   262A      1.126618   263A      1.129399  
     264A      1.134542   265A      1.137165   266A      1.146469  
     267A      1.151390   268A      1.161384   269A      1.166631  
     270A      1.167870   271A      1.174862   272A      1.184439  
     273A      1.185770   274A      1.196235   275A      1.202580  
     276A      1.209857   277A      1.216259   278A      1.219784  
     279A      1.229264   280A      1.238409   281A      1.243729  
     282A      1.249363   283A      1.261122   284A      1.267302  
     285A      1.277264   286A      1.277749   287A      1.284438  
     288A      1.294454   289A      1.297884   290A      1.305747  
     291A      1.314813   292A      1.319623   293A      1.328141  
     294A      1.331092   295A      1.359416   296A      1.363364  
     297A      1.368825   298A      1.376525   299A      1.388532  
     300A      1.396360   301A      1.398815   302A      1.405230  
     303A      1.424536   304A      1.429058   305A      1.434041  
     306A      1.439040   307A      1.447049   308A      1.450385  
     309A      1.458262   310A      1.462667   311A      1.472080  
     312A      1.490886   313A      1.504249   314A      1.512021  
     315A      1.515658   316A      1.527511   317A      1.537224  
     318A      1.542480   319A      1.546053   320A      1.558218  
     321A      1.560248   322A      1.566617   323A      1.582947  
     324A      1.585967   325A      1.598220   326A      1.606801  
     327A      1.623965   328A      1.627418   329A      1.635209  
     330A      1.643301   331A      1.655166   332A      1.660531  
     333A      1.673507   334A      1.676932   335A      1.679126  
     336A      1.692086   337A      1.698704   338A      1.702477  
     339A      1.722349   340A      1.728786   341A      1.738547  
     342A      1.741189   343A      1.750060   344A      1.752459  
     345A      1.765656   346A      1.771926   347A      1.781374  
     348A      1.789123   349A      1.794400   350A      1.799653  
     351A      1.804316   352A      1.811535   353A      1.819688  
     354A      1.831511   355A      1.833808   356A      1.846132  
     357A      1.859808   358A      1.862095   359A      1.865749  
     360A      1.880270   361A      1.888273   362A      1.892321  
     363A      1.895118   364A      1.901859   365A      1.912016  
     366A      1.917963   367A      1.929965   368A      1.931507  
     369A      1.945040   370A      1.951176   371A      1.960593  
     372A      1.966893   373A      1.979254   374A      1.992033  
     375A      1.998496   376A      2.019846   377A      2.023778  
     378A      2.029639   379A      2.031938   380A      2.046950  
     381A      2.053726   382A      2.058343   383A      2.064546  
     384A      2.075917   385A      2.086194   386A      2.089919  
     387A      2.106353   388A      2.116471   389A      2.124402  
     390A      2.134121   391A      2.149465   392A      2.160490  
     393A      2.169148   394A      2.169914   395A      2.178101  
     396A      2.195691   397A      2.201172   398A      2.211856  
     399A      2.226567   400A      2.239982   401A      2.254200  
     402A      2.260527   403A      2.273449   404A      2.275969  
     405A      2.291870   406A      2.300711   407A      2.308886  
     408A      2.321761   409A      2.327389   410A      2.338090  
     411A      2.359278   412A      2.394635   413A      2.404959  
     414A      2.431495   415A      2.436088   416A      2.451290  
     417A      2.470995   418A      2.472454   419A      2.501997  
     420A      2.513870   421A      2.535686   422A      2.552813  
     423A      2.558988   424A      2.598127   425A      2.603573  
     426A      2.628838   427A      2.655803   428A      2.680741  
     429A      2.685252   430A      2.704840   431A      2.709052  
     432A      2.711698   433A      2.727648   434A      2.733677  
     435A      2.762135   436A      2.772623   437A      2.777187  
     438A      2.785533   439A      2.801074   440A      2.813532  
     441A      2.821801   442A      2.829075   443A      2.855329  
     444A      2.857470   445A      2.887737   446A      2.897722  
     447A      2.934467   448A      2.948350   449A      2.960357  
     450A      2.993644   451A      3.002754   452A      3.014049  
     453A      3.041394   454A      3.077257   455A      3.093330  
     456A      3.109118   457A      3.112968   458A      3.130612  
     459A      3.145646   460A      3.157727   461A      3.161377  
     462A      3.188537   463A      3.210683   464A      3.214326  
     465A      3.232486   466A      3.238800   467A      3.241835  
     468A      3.251152   469A      3.254588   470A      3.262341  
     471A      3.268744   472A      3.288885   473A      3.301806  
     474A      3.310656   475A      3.315963   476A      3.325709  
     477A      3.331630   478A      3.341586   479A      3.351001  
     480A      3.355405   481A      3.355973   482A      3.370200  
     483A      3.377935   484A      3.389898   485A      3.399521  
     486A      3.418468   487A      3.425286   488A      3.432758  
     489A      3.434609   490A      3.461095   491A      3.469726  
     492A      3.479474   493A      3.483403   494A      3.493149  
     495A      3.503041   496A      3.509378   497A      3.527070  
     498A      3.529137   499A      3.535389   500A      3.557667  
     501A      3.561379   502A      3.565296   503A      3.588113  
     504A      3.589014   505A      3.598222   506A      3.600533  
     507A      3.611843   508A      3.635120   509A      3.638230  
     510A      3.656646   511A      3.666383   512A      3.685790  
     513A      3.703574   514A      3.710782   515A      3.728709  
     516A      3.734707   517A      3.746174   518A      3.758777  
     519A      3.760853   520A      3.776968   521A      3.787500  
     522A      3.795813   523A      3.800871   524A      3.818595  
     525A      3.839731   526A      3.851597   527A      3.858471  
     528A      3.870828   529A      3.884446   530A      3.891300  
     531A      3.896951   532A      3.915477   533A      3.923870  
     534A      3.938179   535A      3.945821   536A      3.961669  
     537A      3.977624   538A      3.986057   539A      3.988139  
     540A      4.007662   541A      4.013373   542A      4.031952  
     543A      4.039831   544A      4.049353   545A      4.050119  
     546A      4.060229   547A      4.070155   548A      4.086783  
     549A      4.101430   550A      4.113619   551A      4.129557  
     552A      4.138429   553A      4.155463   554A      4.161199  
     555A      4.180531   556A      4.186166   557A      4.207985  
     558A      4.218067   559A      4.238007   560A      4.246348  
     561A      4.266634   562A      4.273017   563A      4.282394  
     564A      4.289891   565A      4.301175   566A      4.321267  
     567A      4.333607   568A      4.346741   569A      4.359947  
     570A      4.377449   571A      4.383442   572A      4.393671  
     573A      4.396077   574A      4.404196   575A      4.414902  
     576A      4.432501   577A      4.439908   578A      4.447196  
     579A      4.461639   580A      4.475394   581A      4.478810  
     582A      4.507419   583A      4.521909   584A      4.548595  
     585A      4.560249   586A      4.588920   587A      4.590913  
     588A      4.611334   589A      4.627710   590A      4.648976  
     591A      4.678871   592A      4.688142   593A      4.711334  
     594A      4.723641   595A      4.732207   596A      4.734298  
     597A      4.781241   598A      4.786814   599A      4.791269  
     600A      4.794351   601A      4.813982   602A      4.838004  
     603A      4.844601   604A      4.861196   605A      4.887057  
     606A      4.912355   607A      4.946706   608A      4.952833  
     609A      4.960540   610A      4.973183   611A      4.988474  
     612A      5.009476   613A      5.024817   614A      5.071607  
     615A      5.081214   616A      5.095374   617A      5.116525  
     618A      5.125625   619A      5.132279   620A      5.144940  
     621A      5.147800   622A      5.167014   623A      5.196956  
     624A      5.211657   625A      5.242427   626A      5.262610  
     627A      5.272059   628A      5.285189   629A      5.308660  
     630A      5.328838   631A      5.350647   632A      5.380498  
     633A      5.418133   634A      5.433206   635A      5.466957  
     636A      5.492738   637A      5.500565   638A      5.520905  
     639A      5.602485   640A      5.624593   641A      5.692863  
     642A      5.706326   643A      5.725724   644A      5.743536  
     645A      5.795313   646A      5.801290   647A      5.872420  
     648A      5.886731   649A      6.024773   650A      6.090387  
     651A      6.114415   652A      6.146317   653A      6.202455  
     654A      6.204720   655A      6.250726   656A      6.254718  
     657A      6.308728   658A      6.354914   659A      6.442105  
     660A      6.489059   661A      6.510102   662A      6.664475  
     663A      6.814635   664A      6.822410   665A      6.906392  
     666A      6.965202   667A      7.082989   668A      7.242225  
     669A      7.982531   670A      8.097108   671A      8.420671  
     672A     15.692583   673A     16.159723   674A     16.693743  
     675A     18.554216   676A     19.154526   677A     19.742656  
     678A     19.946620   679A     20.842340  

    Final Occupation by Irrep:
              A 
    DOCC [    53 ]

  @DF-RHF Final Energy: -1685.64751172179808

   => Energetics <=

    Nuclear Repulsion Energy =            901.4409745862473073
    One-Electron Energy =               -4114.7483610609288007
    Two-Electron Energy =                1527.6598747528835247
    Total Energy =                      -1685.6475117217980824

Computation Completed

*** tstop() called on node144.bme.utexas.edu at Sun Mar 28 06:02:34 2021
Module time:
	user time   =     476.97 seconds =       7.95 minutes
	system time =      51.06 seconds =       0.85 minutes
	total time  =        104 seconds =       1.73 minutes
Total time:
	user time   =     476.97 seconds =       7.95 minutes
	system time =      51.06 seconds =       0.85 minutes
	total time  =        104 seconds =       1.73 minutes
   => Loading Basis Set <=

    Name: (AUG-CC-PVTZ AUX)
    Role: RIFIT
    Keyword: DF_BASIS_MP2
    atoms 1-3   entry CL         line   742 file /home/xy3866/psi4conda/share/psi4/basis/aug-cc-pvtz-ri.gbs 
    atoms 4-11  entry C          line   148 file /home/xy3866/psi4conda/share/psi4/basis/aug-cc-pvtz-ri.gbs 
    atoms 12-18 entry H          line    30 file /home/xy3866/psi4conda/share/psi4/basis/aug-cc-pvtz-ri.gbs 


*** tstart() called on node144.bme.utexas.edu
*** at Sun Mar 28 06:02:34 2021


  //>>>>>>>>>>>>>>>>>>>>>>>>>>>>>>>>>>>//
  //               DFMP2               //
  //<<<<<<<<<<<<<<<<<<<<<<<<<<<<<<<<<<<//

	 --------------------------------------------------------
	                          DF-MP2                         
	      2nd-Order Density-Fitted Moller-Plesset Theory     
	              RMP2 Wavefunction,   8 Threads             
	                                                         
	        Rob Parrish, Justin Turney, Andy Simmonett,      
	           Ed Hohenstein, and C. David Sherrill          
	 --------------------------------------------------------

   => Auxiliary Basis Set <=

  Basis Set: (AUG-CC-PVTZ AUX)
    Blend: AUG-CC-PVTZ-RI
    Number of shells: 433
    Number of basis function: 1611
    Number of Cartesian functions: 2046
    Spherical Harmonics?: true
    Max angular momentum: 4

	 --------------------------------------------------------
	                 NBF =   679, NAUX =  1611
	 --------------------------------------------------------
	   CLASS    FOCC     OCC    AOCC    AVIR     VIR    FVIR
	   PAIRS       0      53      53     626     626       0
	 --------------------------------------------------------

  DFHelper Memory: AOs need 5.391 GiB; user supplied 22.352 GiB. Using in-core AOs.


         ------------------------------------------------------------
                                     CPHF                           
                                  Rob Parrish                       
         ------------------------------------------------------------

  ==> Geometry <==

    Molecular point group: c1
    Full point group: C1

    Geometry (in Angstrom), charge = 0, multiplicity = 1:

       Center              X                  Y                   Z               Mass       
    ------------   -----------------  -----------------  -----------------  -----------------
         CL          -1.474923698884     0.935445328189    -1.331890358833    34.968852682000
         CL          -1.716111698884    -1.677857671811    -0.198338358833    34.968852682000
         CL          -1.422808698884     0.570704328189     1.563156641167    34.968852682000
         C            0.629937301116    -0.216809671811    -0.034223358833    12.000000000000
         C            1.445745301116     0.942074328189    -0.003500358833    12.000000000000
         C            1.232366301116    -1.482802671811    -0.027710358833    12.000000000000
         C            2.835489301116     0.761180328189    -0.004051358833    12.000000000000
         C           -0.885823698884    -0.108089671811    -0.005981358833    12.000000000000
         C            0.949576101116     2.369436228189     0.032918741167    12.000000000000
         C            2.617894301116    -1.627219671811    -0.028188358833    12.000000000000
         C            3.430206301116    -0.498097671811    -0.014453358833    12.000000000000
         H            0.620236301116    -2.375153671811    -0.033892358833     1.007825032230
         H            3.466943301116     1.647198328189     0.015900641167     1.007825032230
         H            0.741655301116     2.704040328189    -1.037052358833     1.007825032230
         H            0.045260301116     2.514850328189     0.570815641167     1.007825032230
         H            1.726228301116     3.019213328189     0.396675641167     1.007825032230
         H            3.051647301116    -2.623782671811    -0.028347358833     1.007825032230
         H            4.513325301116    -0.591598671811    -0.012271358833     1.007825032230

  Nuclear repulsion =  901.440974586247307
  Reference energy  = -1685.647511721798082

  ==> Basis Set <==

  Basis Set: AUG-CC-PVTZ
    Blend: AUG-CC-PVTZ
    Number of shells: 223
    Number of basis function: 679
    Number of Cartesian functions: 792
    Spherical Harmonics?: true
    Max angular momentum: 3

  ==> CGRSolver (by Rob Parrish) <==

   Number of roots    =         1
   Preconditioning    =    JACOBI
   Convergence cutoff =     1E-06
   Maximum iterations =       100

  ==> CPHFRHamiltonian (by Rob Parrish) <== 

  ==> MemDFJK: Density-Fitted J/K Matrices <==

    J tasked:                   Yes
    K tasked:                   Yes
    wK tasked:                   No
    OpenMP threads:               8
    Memory [MiB]:             22888
    Algorithm:                 Disk
    Schwarz Cutoff:           1E-12
    Mask sparsity (%):       3.9641
    Fitting Condition:        1E-10

   => Auxiliary Basis Set <=

  Basis Set: (AUG-CC-PVTZ AUX)
    Blend: AUG-CC-PVTZ-JKFIT
    Number of shells: 464
    Number of basis function: 1592
    Number of Cartesian functions: 1973
    Spherical Harmonics?: true
    Max angular momentum: 4

  ==> CPHF Iterations <==

  => Iterations <=

             Iter  Converged  Remaining    Residual
  CGR           1          0          1   1.146E-01
  CGR           2          0          1   3.112E-02
  CGR           3          0          1   1.398E-02
  CGR           4          0          1   7.542E-03
  CGR           5          0          1   3.201E-03
  CGR           6          0          1   1.369E-03
  CGR           7          0          1   4.019E-04
  CGR           8          0          1   1.248E-04
  CGR           9          0          1   3.785E-05
  CGR          10          0          1   1.279E-05
  CGR          11          0          1   5.496E-06
  CGR          12          0          1   2.067E-06
  CGR          13          0          1   1.024E-06
  CGR          14          1          0   3.278E-07

    CGRSolver converged.

	-----------------------------------------------------------
	 ==================> DF-MP2 Energies <==================== 
	-----------------------------------------------------------
	 Reference Energy          =   -1685.6475117217980824 [Eh]
	 Singles Energy            =      -0.0000000000000000 [Eh]
	 Same-Spin Energy          =      -0.5435566023976737 [Eh]
	 Opposite-Spin Energy      =      -1.6250034679048913 [Eh]
	 Correlation Energy        =      -2.1685600703025649 [Eh]
	 Total Energy              =   -1687.8160717921007290 [Eh]
	-----------------------------------------------------------
	 ================> DF-SCS-MP2 Energies <================== 
	-----------------------------------------------------------
	 SCS Same-Spin Scale       =       0.3333333333333333 [-]
	 SCS Opposite-Spin Scale   =       1.2000000000000000 [-]
	 SCS Same-Spin Energy      =      -0.1811855341325579 [Eh]
	 SCS Opposite-Spin Energy  =      -1.9500041614858694 [Eh]
	 SCS Correlation Energy    =      -2.1311896956184273 [Eh]
	 SCS Total Energy          =   -1687.7787014174164142 [Eh]
	-----------------------------------------------------------



Properties will be evaluated at  -0.000000,   0.000000,   0.000000 [a0]

Properties computed using the MP2 density matrix

  Nuclear Dipole Moment: [e a0]
     X:    17.5032      Y:     4.1834      Z:    -0.1503

  Electronic Dipole Moment: [e a0]
     X:   -16.6652      Y:    -4.0849      Z:     0.1354

  Dipole Moment: [e a0]
     X:     0.8380      Y:     0.0985      Z:    -0.0149     Total:     0.8439

  Dipole Moment: [D]
     X:     2.1300      Y:     0.2503      Z:    -0.0378     Total:     2.1449


*** tstop() called on node144.bme.utexas.edu at Sun Mar 28 06:07:16 2021
Module time:
	user time   =    1719.36 seconds =      28.66 minutes
	system time =      65.83 seconds =       1.10 minutes
	total time  =        282 seconds =       4.70 minutes
Total time:
	user time   =    2196.52 seconds =      36.61 minutes
	system time =     116.89 seconds =       1.95 minutes
	total time  =        386 seconds =       6.43 minutes

    Psi4 stopped on: Sunday, 28 March 2021 06:07AM
    Psi4 wall time for execution: 0:06:26.14

*** Psi4 exiting successfully. Buy a developer a beer!
