
    -----------------------------------------------------------------------
          Psi4: An Open-Source Ab Initio Electronic Structure Package
                               Psi4 1.3.2 release

                         Git: Rev {HEAD} ecbda83 


    R. M. Parrish, L. A. Burns, D. G. A. Smith, A. C. Simmonett,
    A. E. DePrince III, E. G. Hohenstein, U. Bozkaya, A. Yu. Sokolov,
    R. Di Remigio, R. M. Richard, J. F. Gonthier, A. M. James,
    H. R. McAlexander, A. Kumar, M. Saitow, X. Wang, B. P. Pritchard,
    P. Verma, H. F. Schaefer III, K. Patkowski, R. A. King, E. F. Valeev,
    F. A. Evangelista, J. M. Turney, T. D. Crawford, and C. D. Sherrill,
    J. Chem. Theory Comput. 13(7) pp 3185--3197 (2017).
    (doi: 10.1021/acs.jctc.7b00174)


                         Additional Contributions by
    P. Kraus, H. Kruse, M. H. Lechner, M. C. Schieber, R. A. Shaw,
    A. Alenaizan, R. Galvelis, Z. L. Glick, S. Lehtola, and J. P. Misiewicz

    -----------------------------------------------------------------------


    Psi4 started on: Wednesday, 04 November 2020 04:25AM

    Process ID: 5152
    Host:       node54.bme.utexas.edu
    PSIDATADIR: /home/xy3866/psi4conda/share/psi4
    Memory:     500.0 MiB
    Threads:    8
    
  ==> Input File <==

--------------------------------------------------------------------------
#psi4
#
memory 32 gb

molecule  {
0 1
  O        1.7627890     2.3683800    -0.1458810
  O        1.6754140    -2.4069960    -0.1279020
  C       -1.0215720    -0.0077180     0.3641480
  C       -2.5139530    -0.0194410     0.5634370
  C       -0.3646399    -1.2314518     0.2421829
  C       -0.3790876     1.2288005     0.2427231
  C       -3.2735700    -0.0197480    -0.7643280
  C        1.0346870     1.2106680    -0.0181020
  C        1.0480560    -1.1910380    -0.0190010
  C        1.7368580     0.0147850    -0.1457440
  H       -2.7927850    -0.9030380     1.1483340
  H       -2.8082890     0.8538600     1.1573130
  H       -0.8312370    -2.1635460     0.3309200
  H       -0.8789600     2.1456520     0.3351900
  H       -3.0230990     0.8672620    -1.3527740
  H       -4.3574070    -0.0294260    -0.6053230
  H       -3.0076490    -0.8981260    -1.3586750
  H        2.8074370     0.0467670    -0.3362510
  H        1.1590650     3.1223080    -0.0299710
  H        2.6215300    -2.2543830    -0.2976190
units angstrom
no_reorient  #important for SAPT in psi4, default
symmetry c1  #important for SAPT in psi4, default
}

set PROPERTIES_ORIGIN ["COM"]
properties('MP2/aug-cc-pvtz', properties = ['dipole'])
--------------------------------------------------------------------------

  Memory set to  29.802 GiB by Python driver.
    SCF Algorithm Type (re)set to DF.

*** tstart() called on node54.bme.utexas.edu
*** at Wed Nov  4 04:25:34 2020

   => Loading Basis Set <=

    Name: AUG-CC-PVTZ
    Role: ORBITAL
    Keyword: BASIS
    atoms 1-2   entry O          line   327 file /home/xy3866/psi4conda/share/psi4/basis/aug-cc-pvtz.gbs 
    atoms 3-10  entry C          line   235 file /home/xy3866/psi4conda/share/psi4/basis/aug-cc-pvtz.gbs 
    atoms 11-20 entry H          line    36 file /home/xy3866/psi4conda/share/psi4/basis/aug-cc-pvtz.gbs 


         ---------------------------------------------------------
                                   SCF
               by Justin Turney, Rob Parrish, Andy Simmonett
                          and Daniel G. A. Smith
                              RHF Reference
                        8 Threads,  30517 MiB Core
         ---------------------------------------------------------

  ==> Geometry <==

    Molecular point group: c1
    Full point group: C1

    Geometry (in Angstrom), charge = 0, multiplicity = 1:

       Center              X                  Y                   Z               Mass       
    ------------   -----------------  -----------------  -----------------  -----------------
         O            1.770055238435     2.368422648093    -0.147241965986    15.994914619570
         O            1.682680238435    -2.406953351907    -0.129262965986    15.994914619570
         C           -1.014305761565    -0.007675351907     0.362787034014    12.000000000000
         C           -2.506686761565    -0.019398351907     0.562076034014    12.000000000000
         C           -0.357373661565    -1.231409151907     0.240821934014    12.000000000000
         C           -0.371821361565     1.228843148093     0.241362134014    12.000000000000
         C           -3.266303761565    -0.019705351907    -0.765688965986    12.000000000000
         C            1.041953238435     1.210710648093    -0.019462965986    12.000000000000
         C            1.055322238435    -1.190995351907    -0.020361965986    12.000000000000
         C            1.744124238435     0.014827648093    -0.147104965986    12.000000000000
         H           -2.785518761565    -0.902995351907     1.146973034014     1.007825032230
         H           -2.801022761565     0.853902648093     1.155952034014     1.007825032230
         H           -0.823970761565    -2.163503351907     0.329559034014     1.007825032230
         H           -0.871693761565     2.145694648093     0.333829034014     1.007825032230
         H           -3.015832761565     0.867304648093    -1.354134965986     1.007825032230
         H           -4.350140761565    -0.029383351907    -0.606683965986     1.007825032230
         H           -3.000382761565    -0.898083351907    -1.360035965986     1.007825032230
         H            2.814703238435     0.046809648093    -0.337611965986     1.007825032230
         H            1.166331238435     3.122350648093    -0.031331965986     1.007825032230
         H            2.628796238435    -2.254340351907    -0.298979965986     1.007825032230

  Running in c1 symmetry.

  Rotational constants: A =      0.05571  B =      0.03587  C =      0.02313 [cm^-1]
  Rotational constants: A =   1670.16268  B =   1075.36480  C =    693.39250 [MHz]
  Nuclear repulsion =  506.170885901528834

  Charge       = 0
  Multiplicity = 1
  Electrons    = 74
  Nalpha       = 37
  Nbeta        = 37

  ==> Algorithm <==

  SCF Algorithm Type is DF.
  DIIS enabled.
  MOM disabled.
  Fractional occupation disabled.
  Guess Type is SAD.
  Energy threshold   = 1.00e-10
  Density threshold  = 1.00e-10
  Integral threshold = 0.00e+00

  ==> Primary Basis <==

  Basis Set: AUG-CC-PVTZ
    Blend: AUG-CC-PVTZ
    Number of shells: 230
    Number of basis function: 690
    Number of Cartesian functions: 800
    Spherical Harmonics?: true
    Max angular momentum: 3

   => Loading Basis Set <=

    Name: (AUG-CC-PVTZ AUX)
    Role: JKFIT
    Keyword: DF_BASIS_SCF
    atoms 1-2   entry O          line   286 file /home/xy3866/psi4conda/share/psi4/basis/aug-cc-pvtz-jkfit.gbs 
    atoms 3-10  entry C          line   162 file /home/xy3866/psi4conda/share/psi4/basis/aug-cc-pvtz-jkfit.gbs 
    atoms 11-20 entry H          line    70 file /home/xy3866/psi4conda/share/psi4/basis/aug-cc-pvtz-jkfit.gbs 

  ==> Pre-Iterations <==

   -------------------------------------------------------
    Irrep   Nso     Nmo     Nalpha   Nbeta   Ndocc  Nsocc
   -------------------------------------------------------
     A        690     690       0       0       0       0
   -------------------------------------------------------
    Total     690     690      37      37      37       0
   -------------------------------------------------------

  ==> Integral Setup <==

  DFHelper Memory: AOs need 5.102 GiB; user supplied 22.352 GiB. Using in-core AOs.

  ==> MemDFJK: Density-Fitted J/K Matrices <==

    J tasked:                   Yes
    K tasked:                   Yes
    wK tasked:                   No
    OpenMP threads:               8
    Memory [MiB]:             22888
    Algorithm:                 Disk
    Schwarz Cutoff:           1E-12
    Mask sparsity (%):       6.7620
    Fitting Condition:        1E-10

   => Auxiliary Basis Set <=

  Basis Set: (AUG-CC-PVTZ AUX)
    Blend: AUG-CC-PVTZ-JKFIT
    Number of shells: 440
    Number of basis function: 1500
    Number of Cartesian functions: 1860
    Spherical Harmonics?: true
    Max angular momentum: 4

  Minimum eigenvalue in the overlap matrix is 7.1059836485E-07.
  Using Symmetric Orthogonalization.

  SCF Guess: Superposition of Atomic Densities via on-the-fly atomic UHF.

  ==> Iterations <==

                           Total Energy        Delta E     RMS |[F,P]|

   @DF-RHF iter SAD:  -457.92450968166781   -4.57925e+02   0.00000e+00 
   @DF-RHF iter   1:  -458.31887173811447   -3.94362e-01   1.11588e-03 DIIS
   @DF-RHF iter   2:  -458.59051853240499   -2.71647e-01   5.26991e-04 DIIS
   @DF-RHF iter   3:  -458.64874687096625   -5.82283e-02   1.07598e-04 DIIS
   @DF-RHF iter   4:  -458.65261196852305   -3.86510e-03   4.98822e-05 DIIS
   @DF-RHF iter   5:  -458.65331493328716   -7.02965e-04   8.14434e-06 DIIS
   @DF-RHF iter   6:  -458.65334751266323   -3.25794e-05   3.00569e-06 DIIS
   @DF-RHF iter   7:  -458.65335201859125   -4.50593e-06   1.19059e-06 DIIS
   @DF-RHF iter   8:  -458.65335286842208   -8.49831e-07   4.54900e-07 DIIS
   @DF-RHF iter   9:  -458.65335304363492   -1.75213e-07   2.07973e-07 DIIS
   @DF-RHF iter  10:  -458.65335309379219   -5.01573e-08   1.00831e-07 DIIS
   @DF-RHF iter  11:  -458.65335310729949   -1.35073e-08   3.42089e-08 DIIS
   @DF-RHF iter  12:  -458.65335310865152   -1.35202e-09   1.21161e-08 DIIS
   @DF-RHF iter  13:  -458.65335310874610   -9.45874e-11   4.00869e-09 DIIS
   @DF-RHF iter  14:  -458.65335310875514   -9.03810e-12   1.20593e-09 DIIS
   @DF-RHF iter  15:  -458.65335310875724   -2.10321e-12   4.85522e-10 DIIS
   @DF-RHF iter  16:  -458.65335310875548    1.76215e-12   2.06957e-10 DIIS
   @DF-RHF iter  17:  -458.65335310875582   -3.41061e-13   1.03469e-10 DIIS
   @DF-RHF iter  18:  -458.65335310875633   -5.11591e-13   4.73565e-11 DIIS
  Energy and wave function converged.


  ==> Post-Iterations <==

    Orbital Energies [Eh]
    ---------------------

    Doubly Occupied:                                                      

       1A    -20.597913     2A    -20.595738     3A    -11.317852  
       4A    -11.316050     5A    -11.251040     6A    -11.228468  
       7A    -11.225074     8A    -11.222399     9A    -11.217900  
      10A    -11.216027    11A     -1.407012    12A     -1.403672  
      13A     -1.144240    14A     -1.062732    15A     -0.994733  
      16A     -0.987431    17A     -0.873040    18A     -0.842244  
      19A     -0.804429    20A     -0.737259    21A     -0.694033  
      22A     -0.678017    23A     -0.666259    24A     -0.609905  
      25A     -0.602227    26A     -0.595039    27A     -0.591092  
      28A     -0.576889    29A     -0.555700    30A     -0.548186  
      31A     -0.534775    32A     -0.520121    33A     -0.485621  
      34A     -0.473747    35A     -0.449801    36A     -0.329242  
      37A     -0.304293  

    Virtual:                                                              

      38A      0.025778    39A      0.030569    40A      0.033831  
      41A      0.041819    42A      0.045633    43A      0.049475  
      44A      0.059319    45A      0.061057    46A      0.071327  
      47A      0.074826    48A      0.085293    49A      0.094676  
      50A      0.104525    51A      0.106043    52A      0.111708  
      53A      0.116854    54A      0.121070    55A      0.122278  
      56A      0.124761    57A      0.128029    58A      0.131167  
      59A      0.132814    60A      0.135715    61A      0.137655  
      62A      0.142673    63A      0.150879    64A      0.155697  
      65A      0.157648    66A      0.159510    67A      0.162850  
      68A      0.164954    69A      0.175426    70A      0.177757  
      71A      0.185350    72A      0.191114    73A      0.199927  
      74A      0.207420    75A      0.215064    76A      0.217144  
      77A      0.223422    78A      0.231415    79A      0.239283  
      80A      0.241569    81A      0.249813    82A      0.251964  
      83A      0.254900    84A      0.258643    85A      0.266335  
      86A      0.270288    87A      0.275799    88A      0.284388  
      89A      0.286893    90A      0.289361    91A      0.296155  
      92A      0.298872    93A      0.306518    94A      0.314146  
      95A      0.326034    96A      0.327979    97A      0.333020  
      98A      0.336895    99A      0.340255   100A      0.343096  
     101A      0.346122   102A      0.352775   103A      0.360653  
     104A      0.364055   105A      0.367031   106A      0.371066  
     107A      0.379899   108A      0.381486   109A      0.389866  
     110A      0.393129   111A      0.397408   112A      0.406540  
     113A      0.406924   114A      0.410297   115A      0.414631  
     116A      0.421934   117A      0.429329   118A      0.433410  
     119A      0.434207   120A      0.437618   121A      0.445403  
     122A      0.448689   123A      0.450629   124A      0.457238  
     125A      0.461064   126A      0.466019   127A      0.471300  
     128A      0.475060   129A      0.481192   130A      0.485465  
     131A      0.487546   132A      0.495299   133A      0.498768  
     134A      0.502141   135A      0.504613   136A      0.510717  
     137A      0.513285   138A      0.515766   139A      0.519303  
     140A      0.522452   141A      0.527091   142A      0.531782  
     143A      0.537807   144A      0.545102   145A      0.548483  
     146A      0.553171   147A      0.557336   148A      0.563387  
     149A      0.573700   150A      0.579199   151A      0.583570  
     152A      0.592327   153A      0.595096   154A      0.601886  
     155A      0.605851   156A      0.611568   157A      0.615739  
     158A      0.619081   159A      0.632700   160A      0.634685  
     161A      0.647866   162A      0.654922   163A      0.663128  
     164A      0.668373   165A      0.677678   166A      0.683590  
     167A      0.690624   168A      0.698837   169A      0.702008  
     170A      0.714977   171A      0.719246   172A      0.732913  
     173A      0.739723   174A      0.743435   175A      0.748784  
     176A      0.756338   177A      0.762136   178A      0.778854  
     179A      0.782721   180A      0.800244   181A      0.801864  
     182A      0.806679   183A      0.814234   184A      0.816239  
     185A      0.818067   186A      0.822980   187A      0.832254  
     188A      0.837426   189A      0.847109   190A      0.851596  
     191A      0.859490   192A      0.871179   193A      0.878480  
     194A      0.882943   195A      0.888259   196A      0.892354  
     197A      0.898954   198A      0.902116   199A      0.905364  
     200A      0.910008   201A      0.912835   202A      0.918424  
     203A      0.919253   204A      0.924874   205A      0.940424  
     206A      0.944268   207A      0.948344   208A      0.949425  
     209A      0.953309   210A      0.964125   211A      0.976809  
     212A      0.978065   213A      0.981506   214A      0.989844  
     215A      0.993279   216A      0.998372   217A      1.003589  
     218A      1.005237   219A      1.011574   220A      1.025886  
     221A      1.030466   222A      1.033126   223A      1.037704  
     224A      1.041338   225A      1.048182   226A      1.051954  
     227A      1.057828   228A      1.061770   229A      1.068389  
     230A      1.073715   231A      1.077700   232A      1.081712  
     233A      1.087052   234A      1.090513   235A      1.104183  
     236A      1.109091   237A      1.114476   238A      1.119976  
     239A      1.120988   240A      1.129035   241A      1.133401  
     242A      1.144625   243A      1.146880   244A      1.152264  
     245A      1.164689   246A      1.165341   247A      1.172578  
     248A      1.179927   249A      1.187987   250A      1.190323  
     251A      1.194942   252A      1.202885   253A      1.208500  
     254A      1.210180   255A      1.215349   256A      1.222382  
     257A      1.226412   258A      1.235463   259A      1.244437  
     260A      1.248713   261A      1.266690   262A      1.270591  
     263A      1.274484   264A      1.282013   265A      1.286774  
     266A      1.289159   267A      1.301525   268A      1.309324  
     269A      1.317803   270A      1.322038   271A      1.335151  
     272A      1.342119   273A      1.347026   274A      1.357714  
     275A      1.365914   276A      1.385654   277A      1.388361  
     278A      1.402013   279A      1.414449   280A      1.420027  
     281A      1.426149   282A      1.428850   283A      1.436846  
     284A      1.444778   285A      1.454308   286A      1.463436  
     287A      1.467348   288A      1.475881   289A      1.479968  
     290A      1.497269   291A      1.502234   292A      1.517200  
     293A      1.520589   294A      1.535068   295A      1.540401  
     296A      1.549153   297A      1.559468   298A      1.571127  
     299A      1.582857   300A      1.587041   301A      1.597538  
     302A      1.601521   303A      1.602387   304A      1.622070  
     305A      1.624303   306A      1.633286   307A      1.645597  
     308A      1.646509   309A      1.657541   310A      1.663390  
     311A      1.677010   312A      1.682446   313A      1.685430  
     314A      1.700494   315A      1.704545   316A      1.710201  
     317A      1.719371   318A      1.727669   319A      1.738502  
     320A      1.747129   321A      1.757364   322A      1.761575  
     323A      1.767055   324A      1.790466   325A      1.796417  
     326A      1.804706   327A      1.810876   328A      1.819649  
     329A      1.823210   330A      1.831118   331A      1.838555  
     332A      1.848612   333A      1.856285   334A      1.858293  
     335A      1.869841   336A      1.876258   337A      1.883202  
     338A      1.886350   339A      1.899176   340A      1.902198  
     341A      1.916797   342A      1.924262   343A      1.928405  
     344A      1.932820   345A      1.944709   346A      1.962627  
     347A      1.974784   348A      1.980424   349A      1.999083  
     350A      2.004728   351A      2.012418   352A      2.015415  
     353A      2.034583   354A      2.042025   355A      2.050324  
     356A      2.054063   357A      2.068574   358A      2.075550  
     359A      2.097769   360A      2.100162   361A      2.113813  
     362A      2.117751   363A      2.132599   364A      2.138753  
     365A      2.159165   366A      2.160763   367A      2.170264  
     368A      2.175484   369A      2.192321   370A      2.195914  
     371A      2.208353   372A      2.217154   373A      2.233964  
     374A      2.243091   375A      2.248213   376A      2.261039  
     377A      2.270804   378A      2.273537   379A      2.286686  
     380A      2.301578   381A      2.313162   382A      2.317968  
     383A      2.334255   384A      2.356085   385A      2.368559  
     386A      2.384201   387A      2.387890   388A      2.397945  
     389A      2.423600   390A      2.436272   391A      2.446288  
     392A      2.461894   393A      2.469947   394A      2.498361  
     395A      2.502337   396A      2.510167   397A      2.519533  
     398A      2.531940   399A      2.542014   400A      2.546337  
     401A      2.547420   402A      2.565370   403A      2.574017  
     404A      2.597136   405A      2.620929   406A      2.634368  
     407A      2.660571   408A      2.666612   409A      2.675861  
     410A      2.706164   411A      2.727559   412A      2.748368  
     413A      2.769393   414A      2.779762   415A      2.795888  
     416A      2.805792   417A      2.821203   418A      2.823891  
     419A      2.829577   420A      2.875406   421A      2.884163  
     422A      2.928944   423A      2.930590   424A      2.944316  
     425A      2.956116   426A      2.961273   427A      3.004313  
     428A      3.017908   429A      3.047981   430A      3.091544  
     431A      3.131786   432A      3.144768   433A      3.162492  
     434A      3.182628   435A      3.219992   436A      3.233057  
     437A      3.258857   438A      3.264769   439A      3.279204  
     440A      3.298543   441A      3.321783   442A      3.334398  
     443A      3.341634   444A      3.350790   445A      3.387443  
     446A      3.396234   447A      3.408820   448A      3.425161  
     449A      3.458082   450A      3.466616   451A      3.468226  
     452A      3.481702   453A      3.494583   454A      3.507811  
     455A      3.510823   456A      3.527926   457A      3.535237  
     458A      3.542321   459A      3.550223   460A      3.565715  
     461A      3.573108   462A      3.592024   463A      3.593962  
     464A      3.610061   465A      3.626987   466A      3.642396  
     467A      3.648459   468A      3.652208   469A      3.668799  
     470A      3.689389   471A      3.692145   472A      3.705812  
     473A      3.723066   474A      3.730970   475A      3.738320  
     476A      3.751123   477A      3.764536   478A      3.772125  
     479A      3.783443   480A      3.802982   481A      3.806520  
     482A      3.817082   483A      3.837624   484A      3.857204  
     485A      3.863864   486A      3.877713   487A      3.887596  
     488A      3.903793   489A      3.906946   490A      3.915296  
     491A      3.918129   492A      3.929895   493A      3.941923  
     494A      3.952385   495A      3.958026   496A      3.967149  
     497A      3.981872   498A      3.984245   499A      4.003423  
     500A      4.014784   501A      4.024959   502A      4.033244  
     503A      4.044879   504A      4.050243   505A      4.059717  
     506A      4.081536   507A      4.086235   508A      4.101153  
     509A      4.103581   510A      4.115220   511A      4.120862  
     512A      4.133055   513A      4.149447   514A      4.172159  
     515A      4.176833   516A      4.184526   517A      4.206832  
     518A      4.210118   519A      4.214407   520A      4.225912  
     521A      4.236305   522A      4.249504   523A      4.260140  
     524A      4.279984   525A      4.281584   526A      4.294074  
     527A      4.305285   528A      4.313743   529A      4.331731  
     530A      4.345245   531A      4.355086   532A      4.367844  
     533A      4.371778   534A      4.375077   535A      4.386976  
     536A      4.396182   537A      4.419446   538A      4.425657  
     539A      4.441266   540A      4.465910   541A      4.489045  
     542A      4.493417   543A      4.497099   544A      4.507456  
     545A      4.516420   546A      4.526174   547A      4.529776  
     548A      4.538429   549A      4.549784   550A      4.551649  
     551A      4.575456   552A      4.585424   553A      4.592687  
     554A      4.618597   555A      4.627264   556A      4.654896  
     557A      4.661809   558A      4.675303   559A      4.680860  
     560A      4.703564   561A      4.715514   562A      4.724018  
     563A      4.734081   564A      4.749015   565A      4.761630  
     566A      4.786058   567A      4.798935   568A      4.803778  
     569A      4.821079   570A      4.827369   571A      4.861145  
     572A      4.868209   573A      4.888566   574A      4.901226  
     575A      4.914005   576A      4.927991   577A      4.930310  
     578A      4.944604   579A      4.969271   580A      4.971721  
     581A      4.985687   582A      5.016703   583A      5.028941  
     584A      5.039406   585A      5.055989   586A      5.086508  
     587A      5.090695   588A      5.107886   589A      5.127159  
     590A      5.140748   591A      5.153583   592A      5.181991  
     593A      5.193069   594A      5.204792   595A      5.207478  
     596A      5.243472   597A      5.259042   598A      5.282090  
     599A      5.296175   600A      5.300420   601A      5.315122  
     602A      5.320499   603A      5.339194   604A      5.348802  
     605A      5.364135   606A      5.372181   607A      5.388122  
     608A      5.413466   609A      5.419535   610A      5.437365  
     611A      5.447045   612A      5.453773   613A      5.476411  
     614A      5.498036   615A      5.543056   616A      5.574031  
     617A      5.593266   618A      5.616660   619A      5.645488  
     620A      5.655065   621A      5.702451   622A      5.716761  
     623A      5.731361   624A      5.761530   625A      5.785250  
     626A      5.796817   627A      5.815592   628A      5.877341  
     629A      5.886299   630A      5.911446   631A      5.973621  
     632A      6.005278   633A      6.066920   634A      6.118382  
     635A      6.186669   636A      6.229336   637A      6.231611  
     638A      6.245426   639A      6.266720   640A      6.310504  
     641A      6.329817   642A      6.396017   643A      6.420183  
     644A      6.430527   645A      6.443772   646A      6.564165  
     647A      6.647509   648A      6.659389   649A      6.765288  
     650A      6.768657   651A      6.788326   652A      6.799916  
     653A      6.838209   654A      6.872249   655A      6.889623  
     656A      6.904938   657A      6.959411   658A      6.986875  
     659A      6.994925   660A      7.025363   661A      7.036958  
     662A      7.165986   663A      7.253052   664A      7.256293  
     665A      7.386965   666A      7.411251   667A      7.440059  
     668A      7.441049   669A      7.571740   670A      7.649844  
     671A      7.682633   672A      7.683677   673A      7.704586  
     674A      7.772333   675A      7.960867   676A      8.027589  
     677A      8.360209   678A      8.393620   679A      8.627144  
     680A      8.644007   681A     15.896688   682A     16.262777  
     683A     16.334280   684A     17.374216   685A     17.883621  
     686A     18.618183   687A     19.123261   688A     19.623035  
     689A     20.358928   690A     21.031450  

    Final Occupation by Irrep:
              A 
    DOCC [    37 ]

  @DF-RHF Final Energy:  -458.65335310875633

   => Energetics <=

    Nuclear Repulsion Energy =            506.1708859015288340
    One-Electron Energy =               -1628.3280762299568778
    Two-Electron Energy =                 663.5038372196717091
    Total Energy =                       -458.6533531087562778

Computation Completed

*** tstop() called on node54.bme.utexas.edu at Wed Nov  4 04:27:20 2020
Module time:
	user time   =     344.69 seconds =       5.74 minutes
	system time =      40.76 seconds =       0.68 minutes
	total time  =        106 seconds =       1.77 minutes
Total time:
	user time   =     344.69 seconds =       5.74 minutes
	system time =      40.76 seconds =       0.68 minutes
	total time  =        106 seconds =       1.77 minutes
   => Loading Basis Set <=

    Name: (AUG-CC-PVTZ AUX)
    Role: RIFIT
    Keyword: DF_BASIS_MP2
    atoms 1-2   entry O          line   264 file /home/xy3866/psi4conda/share/psi4/basis/aug-cc-pvtz-ri.gbs 
    atoms 3-10  entry C          line   148 file /home/xy3866/psi4conda/share/psi4/basis/aug-cc-pvtz-ri.gbs 
    atoms 11-20 entry H          line    30 file /home/xy3866/psi4conda/share/psi4/basis/aug-cc-pvtz-ri.gbs 


*** tstart() called on node54.bme.utexas.edu
*** at Wed Nov  4 04:27:21 2020


  //>>>>>>>>>>>>>>>>>>>>>>>>>>>>>>>>>>>//
  //               DFMP2               //
  //<<<<<<<<<<<<<<<<<<<<<<<<<<<<<<<<<<<//

	 --------------------------------------------------------
	                          DF-MP2                         
	      2nd-Order Density-Fitted Moller-Plesset Theory     
	              RMP2 Wavefunction,   8 Threads             
	                                                         
	        Rob Parrish, Justin Turney, Andy Simmonett,      
	           Ed Hohenstein, and C. David Sherrill          
	 --------------------------------------------------------

   => Auxiliary Basis Set <=

  Basis Set: (AUG-CC-PVTZ AUX)
    Blend: AUG-CC-PVTZ-RI
    Number of shells: 420
    Number of basis function: 1520
    Number of Cartesian functions: 1910
    Spherical Harmonics?: true
    Max angular momentum: 4

	 --------------------------------------------------------
	                 NBF =   690, NAUX =  1520
	 --------------------------------------------------------
	   CLASS    FOCC     OCC    AOCC    AVIR     VIR    FVIR
	   PAIRS       0      37      37     653     653       0
	 --------------------------------------------------------

  DFHelper Memory: AOs need 5.102 GiB; user supplied 22.352 GiB. Using in-core AOs.


         ------------------------------------------------------------
                                     CPHF                           
                                  Rob Parrish                       
         ------------------------------------------------------------

  ==> Geometry <==

    Molecular point group: c1
    Full point group: C1

    Geometry (in Angstrom), charge = 0, multiplicity = 1:

       Center              X                  Y                   Z               Mass       
    ------------   -----------------  -----------------  -----------------  -----------------
         O            1.770055238435     2.368422648093    -0.147241965986    15.994914619570
         O            1.682680238435    -2.406953351907    -0.129262965986    15.994914619570
         C           -1.014305761565    -0.007675351907     0.362787034014    12.000000000000
         C           -2.506686761565    -0.019398351907     0.562076034014    12.000000000000
         C           -0.357373661565    -1.231409151907     0.240821934014    12.000000000000
         C           -0.371821361565     1.228843148093     0.241362134014    12.000000000000
         C           -3.266303761565    -0.019705351907    -0.765688965986    12.000000000000
         C            1.041953238435     1.210710648093    -0.019462965986    12.000000000000
         C            1.055322238435    -1.190995351907    -0.020361965986    12.000000000000
         C            1.744124238435     0.014827648093    -0.147104965986    12.000000000000
         H           -2.785518761565    -0.902995351907     1.146973034014     1.007825032230
         H           -2.801022761565     0.853902648093     1.155952034014     1.007825032230
         H           -0.823970761565    -2.163503351907     0.329559034014     1.007825032230
         H           -0.871693761565     2.145694648093     0.333829034014     1.007825032230
         H           -3.015832761565     0.867304648093    -1.354134965986     1.007825032230
         H           -4.350140761565    -0.029383351907    -0.606683965986     1.007825032230
         H           -3.000382761565    -0.898083351907    -1.360035965986     1.007825032230
         H            2.814703238435     0.046809648093    -0.337611965986     1.007825032230
         H            1.166331238435     3.122350648093    -0.031331965986     1.007825032230
         H            2.628796238435    -2.254340351907    -0.298979965986     1.007825032230

  Nuclear repulsion =  506.170885901528834
  Reference energy  = -458.653353108756335

  ==> Basis Set <==

  Basis Set: AUG-CC-PVTZ
    Blend: AUG-CC-PVTZ
    Number of shells: 230
    Number of basis function: 690
    Number of Cartesian functions: 800
    Spherical Harmonics?: true
    Max angular momentum: 3

  ==> CGRSolver (by Rob Parrish) <==

   Number of roots    =         1
   Preconditioning    =    JACOBI
   Convergence cutoff =     1E-06
   Maximum iterations =       100

  ==> CPHFRHamiltonian (by Rob Parrish) <== 

  ==> MemDFJK: Density-Fitted J/K Matrices <==

    J tasked:                   Yes
    K tasked:                   Yes
    wK tasked:                   No
    OpenMP threads:               8
    Memory [MiB]:             22888
    Algorithm:                 Disk
    Schwarz Cutoff:           1E-12
    Mask sparsity (%):       6.7620
    Fitting Condition:        1E-10

   => Auxiliary Basis Set <=

  Basis Set: (AUG-CC-PVTZ AUX)
    Blend: AUG-CC-PVTZ-JKFIT
    Number of shells: 440
    Number of basis function: 1500
    Number of Cartesian functions: 1860
    Spherical Harmonics?: true
    Max angular momentum: 4

  ==> CPHF Iterations <==

  => Iterations <=

             Iter  Converged  Remaining    Residual
  CGR           1          0          1   1.085E-01
  CGR           2          0          1   4.367E-02
  CGR           3          0          1   2.852E-02
  CGR           4          0          1   8.708E-03
  CGR           5          0          1   2.854E-03
  CGR           6          0          1   1.081E-03
  CGR           7          0          1   3.466E-04
  CGR           8          0          1   1.039E-04
  CGR           9          0          1   3.136E-05
  CGR          10          0          1   9.295E-06
  CGR          11          0          1   3.909E-06
  CGR          12          0          1   2.028E-06
  CGR          13          1          0   8.016E-07

    CGRSolver converged.

	-----------------------------------------------------------
	 ==================> DF-MP2 Energies <==================== 
	-----------------------------------------------------------
	 Reference Energy          =    -458.6533531087563347 [Eh]
	 Singles Energy            =      -0.0000000000000000 [Eh]
	 Same-Spin Energy          =      -0.4814674211837143 [Eh]
	 Opposite-Spin Energy      =      -1.5055312719097502 [Eh]
	 Correlation Energy        =      -1.9869986930934647 [Eh]
	 Total Energy              =    -460.6403518018498175 [Eh]
	-----------------------------------------------------------
	 ================> DF-SCS-MP2 Energies <================== 
	-----------------------------------------------------------
	 SCS Same-Spin Scale       =       0.3333333333333333 [-]
	 SCS Opposite-Spin Scale   =       1.2000000000000000 [-]
	 SCS Same-Spin Energy      =      -0.1604891403945714 [Eh]
	 SCS Opposite-Spin Energy  =      -1.8066375262917003 [Eh]
	 SCS Correlation Energy    =      -1.9671266666862717 [Eh]
	 SCS Total Energy          =    -460.6204797754426181 [Eh]
	-----------------------------------------------------------



Properties will be evaluated at   0.000000,   0.000000,   0.000000 [a0]

Properties computed using the MP2 density matrix

  Nuclear Dipole Moment: [e a0]
     X:   -10.3319      Y:     0.7383      Z:    -0.9599

  Electronic Dipole Moment: [e a0]
     X:    10.1907      Y:    -0.2566      Z:     0.9585

  Dipole Moment: [e a0]
     X:    -0.1412      Y:     0.4817      Z:    -0.0013     Total:     0.5020

  Dipole Moment: [D]
     X:    -0.3589      Y:     1.2243      Z:    -0.0034     Total:     1.2758


*** tstop() called on node54.bme.utexas.edu at Wed Nov  4 04:30:42 2020
Module time:
	user time   =    1080.70 seconds =      18.01 minutes
	system time =      44.12 seconds =       0.74 minutes
	total time  =        201 seconds =       3.35 minutes
Total time:
	user time   =    1426.67 seconds =      23.78 minutes
	system time =      84.94 seconds =       1.42 minutes
	total time  =        308 seconds =       5.13 minutes

    Psi4 stopped on: Wednesday, 04 November 2020 04:30AM
    Psi4 wall time for execution: 0:05:08.41

*** Psi4 exiting successfully. Buy a developer a beer!
