
    -----------------------------------------------------------------------
          Psi4: An Open-Source Ab Initio Electronic Structure Package
                               Psi4 1.3.2 release

                         Git: Rev {HEAD} ecbda83 


    R. M. Parrish, L. A. Burns, D. G. A. Smith, A. C. Simmonett,
    A. E. DePrince III, E. G. Hohenstein, U. Bozkaya, A. Yu. Sokolov,
    R. Di Remigio, R. M. Richard, J. F. Gonthier, A. M. James,
    H. R. McAlexander, A. Kumar, M. Saitow, X. Wang, B. P. Pritchard,
    P. Verma, H. F. Schaefer III, K. Patkowski, R. A. King, E. F. Valeev,
    F. A. Evangelista, J. M. Turney, T. D. Crawford, and C. D. Sherrill,
    J. Chem. Theory Comput. 13(7) pp 3185--3197 (2017).
    (doi: 10.1021/acs.jctc.7b00174)


                         Additional Contributions by
    P. Kraus, H. Kruse, M. H. Lechner, M. C. Schieber, R. A. Shaw,
    A. Alenaizan, R. Galvelis, Z. L. Glick, S. Lehtola, and J. P. Misiewicz

    -----------------------------------------------------------------------


    Psi4 started on: Wednesday, 04 November 2020 06:08AM

    Process ID: 9017
    Host:       node54.bme.utexas.edu
    PSIDATADIR: /home/xy3866/psi4conda/share/psi4
    Memory:     500.0 MiB
    Threads:    8
    
  ==> Input File <==

--------------------------------------------------------------------------
#psi4
#
memory 32 gb

molecule  {
0 1
  O        1.7627890     2.3683800    -0.1458810
  O        1.6754140    -2.4069960    -0.1279020
  C       -1.0215720    -0.0077180     0.3641480
  C       -2.5139530    -0.0194410     0.5634370
  C       -0.3230660    -1.2073880     0.2343750
  C       -0.3360233     1.1565509     0.2347562
  C       -3.2735700    -0.0197480    -0.7643280
  C        1.0346870     1.2106680    -0.0181020
  C        1.0480560    -1.1910380    -0.0190010
  C        1.6953934    -0.0093934    -0.1380601
  H       -2.7927850    -0.9030380     1.1483340
  H       -2.8082890     0.8538600     1.1573130
  H       -0.8312370    -2.1635460     0.3309200
  H       -0.8789600     2.1456520     0.3351900
  H       -3.0230990     0.8672620    -1.3527740
  H       -4.3574070    -0.0294260    -0.6053230
  H       -3.0076490    -0.8981260    -1.3586750
  H        2.8074370     0.0467670    -0.3362510
  H        1.1590650     3.1223080    -0.0299710
  H        2.6215300    -2.2543830    -0.2976190
units angstrom
no_reorient  #important for SAPT in psi4, default
symmetry c1  #important for SAPT in psi4, default
}

set PROPERTIES_ORIGIN ["COM"]
properties('MP2/aug-cc-pvtz', properties = ['dipole'])
--------------------------------------------------------------------------

  Memory set to  29.802 GiB by Python driver.
    SCF Algorithm Type (re)set to DF.

*** tstart() called on node54.bme.utexas.edu
*** at Wed Nov  4 06:08:45 2020

   => Loading Basis Set <=

    Name: AUG-CC-PVTZ
    Role: ORBITAL
    Keyword: BASIS
    atoms 1-2   entry O          line   327 file /home/xy3866/psi4conda/share/psi4/basis/aug-cc-pvtz.gbs 
    atoms 3-10  entry C          line   235 file /home/xy3866/psi4conda/share/psi4/basis/aug-cc-pvtz.gbs 
    atoms 11-20 entry H          line    36 file /home/xy3866/psi4conda/share/psi4/basis/aug-cc-pvtz.gbs 


         ---------------------------------------------------------
                                   SCF
               by Justin Turney, Rob Parrish, Andy Simmonett
                          and Daniel G. A. Smith
                              RHF Reference
                        8 Threads,  30517 MiB Core
         ---------------------------------------------------------

  ==> Geometry <==

    Molecular point group: c1
    Full point group: C1

    Geometry (in Angstrom), charge = 0, multiplicity = 1:

       Center              X                  Y                   Z               Mass       
    ------------   -----------------  -----------------  -----------------  -----------------
         O            1.766302863508     2.374712084455    -0.146538756378    15.994914619570
         O            1.678927863508    -2.400663915545    -0.128559756378    15.994914619570
         C           -1.018058136492    -0.001385915545     0.363490243622    12.000000000000
         C           -2.510439136492    -0.013108915545     0.562779243622    12.000000000000
         C           -0.319552136492    -1.201055915545     0.233717243622    12.000000000000
         C           -0.332509436492     1.162882984455     0.234098443622    12.000000000000
         C           -3.270056136492    -0.013415915545    -0.764985756378    12.000000000000
         C            1.038200863508     1.217000084455    -0.018759756378    12.000000000000
         C            1.051569863508    -1.184705915545    -0.019658756378    12.000000000000
         C            1.698907263508    -0.003061315545    -0.138717856378    12.000000000000
         H           -2.789271136492    -0.896705915545     1.147676243622     1.007825032230
         H           -2.804775136492     0.860192084455     1.156655243622     1.007825032230
         H           -0.827723136492    -2.157213915545     0.330262243622     1.007825032230
         H           -0.875446136492     2.151984084455     0.334532243622     1.007825032230
         H           -3.019585136492     0.873594084455    -1.353431756378     1.007825032230
         H           -4.353893136492    -0.023093915545    -0.605980756378     1.007825032230
         H           -3.004135136492    -0.891793915545    -1.359332756378     1.007825032230
         H            2.810950863508     0.053099084455    -0.336908756378     1.007825032230
         H            1.162578863508     3.128640084455    -0.030628756378     1.007825032230
         H            2.625043863508    -2.248050915545    -0.298276756378     1.007825032230

  Running in c1 symmetry.

  Rotational constants: A =      0.05625  B =      0.03607  C =      0.02330 [cm^-1]
  Rotational constants: A =   1686.23250  B =   1081.20231  C =    698.37513 [MHz]
  Nuclear repulsion =  509.019495276341047

  Charge       = 0
  Multiplicity = 1
  Electrons    = 74
  Nalpha       = 37
  Nbeta        = 37

  ==> Algorithm <==

  SCF Algorithm Type is DF.
  DIIS enabled.
  MOM disabled.
  Fractional occupation disabled.
  Guess Type is SAD.
  Energy threshold   = 1.00e-10
  Density threshold  = 1.00e-10
  Integral threshold = 0.00e+00

  ==> Primary Basis <==

  Basis Set: AUG-CC-PVTZ
    Blend: AUG-CC-PVTZ
    Number of shells: 230
    Number of basis function: 690
    Number of Cartesian functions: 800
    Spherical Harmonics?: true
    Max angular momentum: 3

   => Loading Basis Set <=

    Name: (AUG-CC-PVTZ AUX)
    Role: JKFIT
    Keyword: DF_BASIS_SCF
    atoms 1-2   entry O          line   286 file /home/xy3866/psi4conda/share/psi4/basis/aug-cc-pvtz-jkfit.gbs 
    atoms 3-10  entry C          line   162 file /home/xy3866/psi4conda/share/psi4/basis/aug-cc-pvtz-jkfit.gbs 
    atoms 11-20 entry H          line    70 file /home/xy3866/psi4conda/share/psi4/basis/aug-cc-pvtz-jkfit.gbs 

  ==> Pre-Iterations <==

   -------------------------------------------------------
    Irrep   Nso     Nmo     Nalpha   Nbeta   Ndocc  Nsocc
   -------------------------------------------------------
     A        690     690       0       0       0       0
   -------------------------------------------------------
    Total     690     690      37      37      37       0
   -------------------------------------------------------

  ==> Integral Setup <==

  DFHelper Memory: AOs need 5.104 GiB; user supplied 22.352 GiB. Using in-core AOs.

  ==> MemDFJK: Density-Fitted J/K Matrices <==

    J tasked:                   Yes
    K tasked:                   Yes
    wK tasked:                   No
    OpenMP threads:               8
    Memory [MiB]:             22888
    Algorithm:                 Disk
    Schwarz Cutoff:           1E-12
    Mask sparsity (%):       6.7326
    Fitting Condition:        1E-10

   => Auxiliary Basis Set <=

  Basis Set: (AUG-CC-PVTZ AUX)
    Blend: AUG-CC-PVTZ-JKFIT
    Number of shells: 440
    Number of basis function: 1500
    Number of Cartesian functions: 1860
    Spherical Harmonics?: true
    Max angular momentum: 4

  Minimum eigenvalue in the overlap matrix is 5.8917800486E-07.
  Using Symmetric Orthogonalization.

  SCF Guess: Superposition of Atomic Densities via on-the-fly atomic UHF.

  ==> Iterations <==

                           Total Energy        Delta E     RMS |[F,P]|

   @DF-RHF iter SAD:  -458.13155887642591   -4.58132e+02   0.00000e+00 
   @DF-RHF iter   1:  -458.30524230570313   -1.73683e-01   1.13663e-03 DIIS
   @DF-RHF iter   2:  -458.58549489005867   -2.80253e-01   5.44300e-04 DIIS
   @DF-RHF iter   3:  -458.64873011025935   -6.32352e-02   1.04247e-04 DIIS
   @DF-RHF iter   4:  -458.65247306663093   -3.74296e-03   4.99048e-05 DIIS
   @DF-RHF iter   5:  -458.65315614510149   -6.83078e-04   8.16944e-06 DIIS
   @DF-RHF iter   6:  -458.65318746946758   -3.13244e-05   2.68872e-06 DIIS
   @DF-RHF iter   7:  -458.65319090824295   -3.43878e-06   9.23293e-07 DIIS
   @DF-RHF iter   8:  -458.65319137406567   -4.65823e-07   3.13517e-07 DIIS
   @DF-RHF iter   9:  -458.65319144057713   -6.65115e-08   1.33507e-07 DIIS
   @DF-RHF iter  10:  -458.65319145489087   -1.43137e-08   5.70595e-08 DIIS
   @DF-RHF iter  11:  -458.65319145918340   -4.29253e-09   2.39223e-08 DIIS
   @DF-RHF iter  12:  -458.65319146003390   -8.50491e-10   9.86697e-09 DIIS
   @DF-RHF iter  13:  -458.65319146013348   -9.95897e-11   3.65312e-09 DIIS
   @DF-RHF iter  14:  -458.65319146014406   -1.05729e-11   9.81117e-10 DIIS
   @DF-RHF iter  15:  -458.65319146014588   -1.81899e-12   3.52919e-10 DIIS
   @DF-RHF iter  16:  -458.65319146014565    2.27374e-13   1.41070e-10 DIIS
   @DF-RHF iter  17:  -458.65319146014531    3.41061e-13   7.00577e-11 DIIS
  Energy and wave function converged.


  ==> Post-Iterations <==

    Orbital Energies [Eh]
    ---------------------

    Doubly Occupied:                                                      

       1A    -20.600795     2A    -20.591377     3A    -11.311232  
       4A    -11.301483     5A    -11.244619     6A    -11.231815  
       7A    -11.224546     8A    -11.223981     9A    -11.219262  
      10A    -11.215179    11A     -1.407835    12A     -1.400815  
      13A     -1.159114    14A     -1.067337    15A     -1.002619  
      16A     -0.990212    17A     -0.874067    18A     -0.841401  
      19A     -0.808729    20A     -0.744875    21A     -0.688857  
      22A     -0.676129    23A     -0.657643    24A     -0.613216  
      25A     -0.604155    26A     -0.594526    27A     -0.585682  
      28A     -0.577500    29A     -0.556241    30A     -0.544055  
      31A     -0.522208    32A     -0.516237    33A     -0.488234  
      34A     -0.478817    35A     -0.459483    36A     -0.332861  
      37A     -0.309854  

    Virtual:                                                              

      38A      0.025658    39A      0.031238    40A      0.033853  
      41A      0.041490    42A      0.045865    43A      0.049617  
      44A      0.059103    45A      0.060838    46A      0.070695  
      47A      0.074751    48A      0.085107    49A      0.094085  
      50A      0.105061    51A      0.106490    52A      0.112167  
      53A      0.116869    54A      0.121270    55A      0.121652  
      56A      0.124365    57A      0.128744    58A      0.131477  
      59A      0.134687    60A      0.135968    61A      0.137383  
      62A      0.142584    63A      0.151996    64A      0.154984  
      65A      0.158317    66A      0.159339    67A      0.163203  
      68A      0.165125    69A      0.175080    70A      0.180078  
      71A      0.185150    72A      0.188982    73A      0.197111  
      74A      0.204915    75A      0.213205    76A      0.220802  
      77A      0.225065    78A      0.231740    79A      0.239078  
      80A      0.241495    81A      0.249431    82A      0.252299  
      83A      0.254473    84A      0.259564    85A      0.266937  
      86A      0.269919    87A      0.276751    88A      0.283103  
      89A      0.287637    90A      0.289333    91A      0.294295  
      92A      0.300048    93A      0.306306    94A      0.320104  
      95A      0.323815    96A      0.329559    97A      0.333491  
      98A      0.336665    99A      0.341464   100A      0.343987  
     101A      0.346127   102A      0.352115   103A      0.358582  
     104A      0.364257   105A      0.367070   106A      0.370895  
     107A      0.378272   108A      0.382307   109A      0.388497  
     110A      0.392694   111A      0.397013   112A      0.405319  
     113A      0.407843   114A      0.410848   115A      0.415396  
     116A      0.419970   117A      0.429680   118A      0.431679  
     119A      0.433565   120A      0.437201   121A      0.446095  
     122A      0.449297   123A      0.451427   124A      0.455428  
     125A      0.461755   126A      0.465207   127A      0.472651  
     128A      0.476544   129A      0.480749   130A      0.485355  
     131A      0.489327   132A      0.494633   133A      0.499606  
     134A      0.502199   135A      0.502653   136A      0.510315  
     137A      0.514005   138A      0.515368   139A      0.518824  
     140A      0.522894   141A      0.528390   142A      0.531368  
     143A      0.537539   144A      0.544886   145A      0.548576  
     146A      0.551932   147A      0.558564   148A      0.565826  
     149A      0.573784   150A      0.582937   151A      0.589649  
     152A      0.592735   153A      0.596384   154A      0.601934  
     155A      0.607473   156A      0.610770   157A      0.618919  
     158A      0.627854   159A      0.633983   160A      0.637487  
     161A      0.647957   162A      0.655760   163A      0.664608  
     164A      0.669749   165A      0.679646   166A      0.684804  
     167A      0.693229   168A      0.699151   169A      0.705915  
     170A      0.717485   171A      0.721261   172A      0.735970  
     173A      0.744130   174A      0.749055   175A      0.756137  
     176A      0.760593   177A      0.767543   178A      0.785602  
     179A      0.791851   180A      0.801550   181A      0.804003  
     182A      0.809601   183A      0.814933   184A      0.819260  
     185A      0.824608   186A      0.826328   187A      0.836417  
     188A      0.840227   189A      0.848493   190A      0.856529  
     191A      0.862015   192A      0.871608   193A      0.876025  
     194A      0.885564   195A      0.888686   196A      0.896560  
     197A      0.899183   198A      0.905701   199A      0.908505  
     200A      0.913107   201A      0.916739   202A      0.917743  
     203A      0.920161   204A      0.933054   205A      0.937716  
     206A      0.943034   207A      0.945751   208A      0.950360  
     209A      0.952142   210A      0.962822   211A      0.975541  
     212A      0.976804   213A      0.981823   214A      0.991784  
     215A      0.995515   216A      0.997497   217A      1.001052  
     218A      1.006483   219A      1.013839   220A      1.023827  
     221A      1.026785   222A      1.030396   223A      1.038126  
     224A      1.043257   225A      1.046523   226A      1.053762  
     227A      1.057324   228A      1.063408   229A      1.070113  
     230A      1.073293   231A      1.081410   232A      1.083624  
     233A      1.088484   234A      1.094729   235A      1.105651  
     236A      1.109465   237A      1.115871   238A      1.120682  
     239A      1.122266   240A      1.128408   241A      1.134266  
     242A      1.141436   243A      1.149298   244A      1.156033  
     245A      1.162423   246A      1.166623   247A      1.173183  
     248A      1.182905   249A      1.186992   250A      1.191223  
     251A      1.197482   252A      1.201019   253A      1.208855  
     254A      1.212123   255A      1.213949   256A      1.224237  
     257A      1.226269   258A      1.237634   259A      1.247457  
     260A      1.249357   261A      1.269000   262A      1.273280  
     263A      1.279247   264A      1.282635   265A      1.284859  
     266A      1.292490   267A      1.307852   268A      1.311008  
     269A      1.317928   270A      1.322889   271A      1.333475  
     272A      1.343270   273A      1.346758   274A      1.357168  
     275A      1.371765   276A      1.386037   277A      1.402326  
     278A      1.406835   279A      1.417141   280A      1.420873  
     281A      1.428445   282A      1.431447   283A      1.435725  
     284A      1.449702   285A      1.451665   286A      1.461231  
     287A      1.465262   288A      1.479754   289A      1.481831  
     290A      1.497654   291A      1.507571   292A      1.515676  
     293A      1.523192   294A      1.535122   295A      1.542247  
     296A      1.554652   297A      1.564764   298A      1.574261  
     299A      1.584720   300A      1.590159   301A      1.598297  
     302A      1.602797   303A      1.609377   304A      1.627506  
     305A      1.634690   306A      1.639178   307A      1.646087  
     308A      1.649284   309A      1.659859   310A      1.664428  
     311A      1.677505   312A      1.680792   313A      1.691849  
     314A      1.700517   315A      1.706776   316A      1.710762  
     317A      1.721844   318A      1.730679   319A      1.742124  
     320A      1.750696   321A      1.759076   322A      1.762173  
     323A      1.774154   324A      1.787211   325A      1.792924  
     326A      1.804706   327A      1.814715   328A      1.817818  
     329A      1.824327   330A      1.829676   331A      1.840788  
     332A      1.850286   333A      1.856867   334A      1.864671  
     335A      1.871620   336A      1.879075   337A      1.886951  
     338A      1.894804   339A      1.898427   340A      1.906503  
     341A      1.918150   342A      1.926727   343A      1.931846  
     344A      1.936077   345A      1.946969   346A      1.960803  
     347A      1.974407   348A      1.978307   349A      2.000511  
     350A      2.004958   351A      2.010812   352A      2.015554  
     353A      2.032051   354A      2.042981   355A      2.058370  
     356A      2.059524   357A      2.065417   358A      2.081429  
     359A      2.094788   360A      2.105025   361A      2.123546  
     362A      2.130927   363A      2.141596   364A      2.149135  
     365A      2.159124   366A      2.162838   367A      2.173188  
     368A      2.183575   369A      2.192330   370A      2.202563  
     371A      2.205203   372A      2.219721   373A      2.238811  
     374A      2.248304   375A      2.250567   376A      2.259729  
     377A      2.275039   378A      2.277037   379A      2.289179  
     380A      2.310772   381A      2.321868   382A      2.327955  
     383A      2.332926   384A      2.361261   385A      2.368181  
     386A      2.383428   387A      2.389622   388A      2.415083  
     389A      2.432118   390A      2.444176   391A      2.450677  
     392A      2.468224   393A      2.480660   394A      2.500998  
     395A      2.513442   396A      2.516181   397A      2.530475  
     398A      2.536776   399A      2.549007   400A      2.557782  
     401A      2.561395   402A      2.566045   403A      2.592250  
     404A      2.603348   405A      2.623809   406A      2.639604  
     407A      2.660008   408A      2.665794   409A      2.676313  
     410A      2.700314   411A      2.749314   412A      2.765922  
     413A      2.779491   414A      2.815697   415A      2.821090  
     416A      2.838410   417A      2.844425   418A      2.852346  
     419A      2.867127   420A      2.902809   421A      2.929195  
     422A      2.942297   423A      2.951632   424A      2.964015  
     425A      2.968619   426A      2.992193   427A      3.012882  
     428A      3.032318   429A      3.080977   430A      3.112279  
     431A      3.148140   432A      3.168599   433A      3.175827  
     434A      3.194593   435A      3.234468   436A      3.254278  
     437A      3.268054   438A      3.274646   439A      3.304156  
     440A      3.314365   441A      3.340631   442A      3.348274  
     443A      3.356834   444A      3.379779   445A      3.389637  
     446A      3.393774   447A      3.412972   448A      3.430612  
     449A      3.461255   450A      3.465900   451A      3.475617  
     452A      3.490912   453A      3.493209   454A      3.511184  
     455A      3.516572   456A      3.542049   457A      3.553246  
     458A      3.554655   459A      3.561329   460A      3.569202  
     461A      3.574815   462A      3.584197   463A      3.607944  
     464A      3.623431   465A      3.625452   466A      3.638903  
     467A      3.653492   468A      3.660499   469A      3.667130  
     470A      3.687123   471A      3.689143   472A      3.700904  
     473A      3.725105   474A      3.735554   475A      3.739493  
     476A      3.748767   477A      3.767075   478A      3.774799  
     479A      3.789508   480A      3.793177   481A      3.805511  
     482A      3.827747   483A      3.842840   484A      3.854127  
     485A      3.859538   486A      3.869130   487A      3.888784  
     488A      3.895230   489A      3.905795   490A      3.917432  
     491A      3.917942   492A      3.932989   493A      3.947893  
     494A      3.955453   495A      3.967026   496A      3.970391  
     497A      3.977091   498A      3.995833   499A      4.009945  
     500A      4.024533   501A      4.036822   502A      4.045205  
     503A      4.049691   504A      4.057686   505A      4.060243  
     506A      4.081042   507A      4.091475   508A      4.092129  
     509A      4.114818   510A      4.129430   511A      4.133679  
     512A      4.145378   513A      4.152208   514A      4.169272  
     515A      4.187323   516A      4.203621   517A      4.208292  
     518A      4.215943   519A      4.226855   520A      4.235110  
     521A      4.246982   522A      4.250367   523A      4.268226  
     524A      4.277612   525A      4.291612   526A      4.312899  
     527A      4.322155   528A      4.329195   529A      4.337225  
     530A      4.345004   531A      4.362518   532A      4.372892  
     533A      4.376723   534A      4.388835   535A      4.401110  
     536A      4.405607   537A      4.427951   538A      4.440692  
     539A      4.449972   540A      4.474916   541A      4.494051  
     542A      4.495288   543A      4.502698   544A      4.513592  
     545A      4.528553   546A      4.533550   547A      4.544730  
     548A      4.548773   549A      4.566106   550A      4.571618  
     551A      4.584471   552A      4.596895   553A      4.601453  
     554A      4.612728   555A      4.647641   556A      4.668622  
     557A      4.671948   558A      4.686330   559A      4.687825  
     560A      4.715490   561A      4.721363   562A      4.729322  
     563A      4.750397   564A      4.755422   565A      4.785922  
     566A      4.797655   567A      4.803262   568A      4.810057  
     569A      4.833208   570A      4.845636   571A      4.862180  
     572A      4.881126   573A      4.893939   574A      4.904560  
     575A      4.922891   576A      4.926991   577A      4.943737  
     578A      4.952529   579A      4.975211   580A      4.988675  
     581A      5.002751   582A      5.029572   583A      5.035576  
     584A      5.059187   585A      5.074066   586A      5.090780  
     587A      5.100300   588A      5.120910   589A      5.127411  
     590A      5.139878   591A      5.151885   592A      5.166353  
     593A      5.182205   594A      5.198357   595A      5.225081  
     596A      5.234011   597A      5.252720   598A      5.261113  
     599A      5.276198   600A      5.298091   601A      5.304533  
     602A      5.306425   603A      5.326907   604A      5.329822  
     605A      5.366159   606A      5.378651   607A      5.412032  
     608A      5.412596   609A      5.413606   610A      5.444933  
     611A      5.452342   612A      5.459319   613A      5.462733  
     614A      5.494448   615A      5.538588   616A      5.559898  
     617A      5.587943   618A      5.597376   619A      5.611197  
     620A      5.655566   621A      5.681115   622A      5.709393  
     623A      5.721743   624A      5.749801   625A      5.764003  
     626A      5.787536   627A      5.805916   628A      5.817267  
     629A      5.841267   630A      5.891531   631A      5.903208  
     632A      6.019921   633A      6.077130   634A      6.107181  
     635A      6.161440   636A      6.227395   637A      6.239457  
     638A      6.248317   639A      6.269548   640A      6.301182  
     641A      6.350265   642A      6.401578   643A      6.427782  
     644A      6.457218   645A      6.491776   646A      6.551655  
     647A      6.633382   648A      6.659689   649A      6.735279  
     650A      6.780931   651A      6.797995   652A      6.807209  
     653A      6.852616   654A      6.875387   655A      6.893260  
     656A      6.915063   657A      6.968602   658A      6.986741  
     659A      7.038528   660A      7.047352   661A      7.104491  
     662A      7.246011   663A      7.255356   664A      7.259715  
     665A      7.399473   666A      7.425947   667A      7.446392  
     668A      7.468671   669A      7.577355   670A      7.671299  
     671A      7.692575   672A      7.703673   673A      7.734902  
     674A      7.813628   675A      7.964579   676A      8.048136  
     677A      8.402259   678A      8.410946   679A      8.644096  
     680A      8.656978   681A     16.279575   682A     16.540044  
     683A     16.912004   684A     17.264900   685A     17.906768  
     686A     18.591690   687A     19.375809   688A     20.161568  
     689A     20.586195   690A     21.205690  

    Final Occupation by Irrep:
              A 
    DOCC [    37 ]

  @DF-RHF Final Energy:  -458.65319146014531

   => Energetics <=

    Nuclear Repulsion Energy =            509.0194952763410470
    One-Electron Energy =               -1634.0113992334206614
    Two-Electron Energy =                 666.3387124969342494
    Total Energy =                       -458.6531914601453082

Computation Completed

*** tstop() called on node54.bme.utexas.edu at Wed Nov  4 06:10:30 2020
Module time:
	user time   =     349.65 seconds =       5.83 minutes
	system time =      39.28 seconds =       0.65 minutes
	total time  =        105 seconds =       1.75 minutes
Total time:
	user time   =     349.65 seconds =       5.83 minutes
	system time =      39.28 seconds =       0.65 minutes
	total time  =        105 seconds =       1.75 minutes
   => Loading Basis Set <=

    Name: (AUG-CC-PVTZ AUX)
    Role: RIFIT
    Keyword: DF_BASIS_MP2
    atoms 1-2   entry O          line   264 file /home/xy3866/psi4conda/share/psi4/basis/aug-cc-pvtz-ri.gbs 
    atoms 3-10  entry C          line   148 file /home/xy3866/psi4conda/share/psi4/basis/aug-cc-pvtz-ri.gbs 
    atoms 11-20 entry H          line    30 file /home/xy3866/psi4conda/share/psi4/basis/aug-cc-pvtz-ri.gbs 


*** tstart() called on node54.bme.utexas.edu
*** at Wed Nov  4 06:10:30 2020


  //>>>>>>>>>>>>>>>>>>>>>>>>>>>>>>>>>>>//
  //               DFMP2               //
  //<<<<<<<<<<<<<<<<<<<<<<<<<<<<<<<<<<<//

	 --------------------------------------------------------
	                          DF-MP2                         
	      2nd-Order Density-Fitted Moller-Plesset Theory     
	              RMP2 Wavefunction,   8 Threads             
	                                                         
	        Rob Parrish, Justin Turney, Andy Simmonett,      
	           Ed Hohenstein, and C. David Sherrill          
	 --------------------------------------------------------

   => Auxiliary Basis Set <=

  Basis Set: (AUG-CC-PVTZ AUX)
    Blend: AUG-CC-PVTZ-RI
    Number of shells: 420
    Number of basis function: 1520
    Number of Cartesian functions: 1910
    Spherical Harmonics?: true
    Max angular momentum: 4

	 --------------------------------------------------------
	                 NBF =   690, NAUX =  1520
	 --------------------------------------------------------
	   CLASS    FOCC     OCC    AOCC    AVIR     VIR    FVIR
	   PAIRS       0      37      37     653     653       0
	 --------------------------------------------------------

  DFHelper Memory: AOs need 5.104 GiB; user supplied 22.352 GiB. Using in-core AOs.


         ------------------------------------------------------------
                                     CPHF                           
                                  Rob Parrish                       
         ------------------------------------------------------------

  ==> Geometry <==

    Molecular point group: c1
    Full point group: C1

    Geometry (in Angstrom), charge = 0, multiplicity = 1:

       Center              X                  Y                   Z               Mass       
    ------------   -----------------  -----------------  -----------------  -----------------
         O            1.766302863508     2.374712084455    -0.146538756378    15.994914619570
         O            1.678927863508    -2.400663915545    -0.128559756378    15.994914619570
         C           -1.018058136492    -0.001385915545     0.363490243622    12.000000000000
         C           -2.510439136492    -0.013108915545     0.562779243622    12.000000000000
         C           -0.319552136492    -1.201055915545     0.233717243622    12.000000000000
         C           -0.332509436492     1.162882984455     0.234098443622    12.000000000000
         C           -3.270056136492    -0.013415915545    -0.764985756378    12.000000000000
         C            1.038200863508     1.217000084455    -0.018759756378    12.000000000000
         C            1.051569863508    -1.184705915545    -0.019658756378    12.000000000000
         C            1.698907263508    -0.003061315545    -0.138717856378    12.000000000000
         H           -2.789271136492    -0.896705915545     1.147676243622     1.007825032230
         H           -2.804775136492     0.860192084455     1.156655243622     1.007825032230
         H           -0.827723136492    -2.157213915545     0.330262243622     1.007825032230
         H           -0.875446136492     2.151984084455     0.334532243622     1.007825032230
         H           -3.019585136492     0.873594084455    -1.353431756378     1.007825032230
         H           -4.353893136492    -0.023093915545    -0.605980756378     1.007825032230
         H           -3.004135136492    -0.891793915545    -1.359332756378     1.007825032230
         H            2.810950863508     0.053099084455    -0.336908756378     1.007825032230
         H            1.162578863508     3.128640084455    -0.030628756378     1.007825032230
         H            2.625043863508    -2.248050915545    -0.298276756378     1.007825032230

  Nuclear repulsion =  509.019495276341047
  Reference energy  = -458.653191460145308

  ==> Basis Set <==

  Basis Set: AUG-CC-PVTZ
    Blend: AUG-CC-PVTZ
    Number of shells: 230
    Number of basis function: 690
    Number of Cartesian functions: 800
    Spherical Harmonics?: true
    Max angular momentum: 3

  ==> CGRSolver (by Rob Parrish) <==

   Number of roots    =         1
   Preconditioning    =    JACOBI
   Convergence cutoff =     1E-06
   Maximum iterations =       100

  ==> CPHFRHamiltonian (by Rob Parrish) <== 

  ==> MemDFJK: Density-Fitted J/K Matrices <==

    J tasked:                   Yes
    K tasked:                   Yes
    wK tasked:                   No
    OpenMP threads:               8
    Memory [MiB]:             22888
    Algorithm:                 Disk
    Schwarz Cutoff:           1E-12
    Mask sparsity (%):       6.7326
    Fitting Condition:        1E-10

   => Auxiliary Basis Set <=

  Basis Set: (AUG-CC-PVTZ AUX)
    Blend: AUG-CC-PVTZ-JKFIT
    Number of shells: 440
    Number of basis function: 1500
    Number of Cartesian functions: 1860
    Spherical Harmonics?: true
    Max angular momentum: 4

  ==> CPHF Iterations <==

  => Iterations <=

             Iter  Converged  Remaining    Residual
  CGR           1          0          1   9.751E-02
  CGR           2          0          1   3.447E-02
  CGR           3          0          1   2.310E-02
  CGR           4          0          1   7.750E-03
  CGR           5          0          1   2.526E-03
  CGR           6          0          1   1.016E-03
  CGR           7          0          1   3.285E-04
  CGR           8          0          1   9.015E-05
  CGR           9          0          1   2.713E-05
  CGR          10          0          1   8.926E-06
  CGR          11          0          1   3.990E-06
  CGR          12          0          1   2.057E-06
  CGR          13          1          0   7.468E-07

    CGRSolver converged.

	-----------------------------------------------------------
	 ==================> DF-MP2 Energies <==================== 
	-----------------------------------------------------------
	 Reference Energy          =    -458.6531914601453082 [Eh]
	 Singles Energy            =      -0.0000000000000000 [Eh]
	 Same-Spin Energy          =      -0.4823601155943164 [Eh]
	 Opposite-Spin Energy      =      -1.5057977537624059 [Eh]
	 Correlation Energy        =      -1.9881578693567223 [Eh]
	 Total Energy              =    -460.6413493295020203 [Eh]
	-----------------------------------------------------------
	 ================> DF-SCS-MP2 Energies <================== 
	-----------------------------------------------------------
	 SCS Same-Spin Scale       =       0.3333333333333333 [-]
	 SCS Opposite-Spin Scale   =       1.2000000000000000 [-]
	 SCS Same-Spin Energy      =      -0.1607867051981055 [Eh]
	 SCS Opposite-Spin Energy  =      -1.8069573045148870 [Eh]
	 SCS Correlation Energy    =      -1.9677440097129923 [Eh]
	 SCS Total Energy          =    -460.6209354698582956 [Eh]
	-----------------------------------------------------------



Properties will be evaluated at   0.000000,   0.000000,  -0.000000 [a0]

Properties computed using the MP2 density matrix

  Nuclear Dipole Moment: [e a0]
     X:   -10.3671      Y:     0.7973      Z:    -0.9533

  Electronic Dipole Moment: [e a0]
     X:    10.1738      Y:    -0.2799      Z:     0.9564

  Dipole Moment: [e a0]
     X:    -0.1933      Y:     0.5174      Z:     0.0032     Total:     0.5524

  Dipole Moment: [D]
     X:    -0.4912      Y:     1.3152      Z:     0.0081     Total:     1.4039


*** tstop() called on node54.bme.utexas.edu at Wed Nov  4 06:13:54 2020
Module time:
	user time   =    1107.00 seconds =      18.45 minutes
	system time =      49.37 seconds =       0.82 minutes
	total time  =        204 seconds =       3.40 minutes
Total time:
	user time   =    1457.90 seconds =      24.30 minutes
	system time =      88.69 seconds =       1.48 minutes
	total time  =        309 seconds =       5.15 minutes

    Psi4 stopped on: Wednesday, 04 November 2020 06:13AM
    Psi4 wall time for execution: 0:05:08.93

*** Psi4 exiting successfully. Buy a developer a beer!
