
    -----------------------------------------------------------------------
          Psi4: An Open-Source Ab Initio Electronic Structure Package
                               Psi4 1.3.2 release

                         Git: Rev {HEAD} ecbda83 


    R. M. Parrish, L. A. Burns, D. G. A. Smith, A. C. Simmonett,
    A. E. DePrince III, E. G. Hohenstein, U. Bozkaya, A. Yu. Sokolov,
    R. Di Remigio, R. M. Richard, J. F. Gonthier, A. M. James,
    H. R. McAlexander, A. Kumar, M. Saitow, X. Wang, B. P. Pritchard,
    P. Verma, H. F. Schaefer III, K. Patkowski, R. A. King, E. F. Valeev,
    F. A. Evangelista, J. M. Turney, T. D. Crawford, and C. D. Sherrill,
    J. Chem. Theory Comput. 13(7) pp 3185--3197 (2017).
    (doi: 10.1021/acs.jctc.7b00174)


                         Additional Contributions by
    P. Kraus, H. Kruse, M. H. Lechner, M. C. Schieber, R. A. Shaw,
    A. Alenaizan, R. Galvelis, Z. L. Glick, S. Lehtola, and J. P. Misiewicz

    -----------------------------------------------------------------------


    Psi4 started on: Monday, 02 November 2020 04:24PM

    Process ID: 106063
    Host:       node90.bme.utexas.edu
    PSIDATADIR: /home/xy3866/psi4conda/share/psi4
    Memory:     500.0 MiB
    Threads:    8
    
  ==> Input File <==

--------------------------------------------------------------------------
#psi4
#
memory 32 gb

molecule  {
0 1
  O        1.7627890     2.3683800    -0.1458810
  O        1.6754140    -2.4069960    -0.1279020
  C       -1.0215720    -0.0077180     0.3641480
  C       -2.5139530    -0.0194410     0.5634370
  C       -0.3230660    -1.2073880     0.2343750
  C       -0.3370590     1.2052280     0.2348720
  C       -3.2735700    -0.0197480    -0.7643280
  C        1.0346870     1.2106680    -0.0181020
  C        1.0585225    -1.1855279    -0.0208891
  C        1.7368580     0.0147850    -0.1457440
  H       -2.7927850    -0.9030380     1.1483340
  H       -2.8082890     0.8538600     1.1573130
  H       -0.8312370    -2.1635460     0.3309200
  H       -0.8789600     2.1456520     0.3351900
  H       -3.0230990     0.8672620    -1.3527740
  H       -4.3574070    -0.0294260    -0.6053230
  H       -3.0076490    -0.8981260    -1.3586750
  H        2.8074370     0.0467670    -0.3362510
  H        1.1590650     3.1223080    -0.0299710
  H        2.6201790    -2.2460007    -0.2974004
units angstrom
no_reorient  #important for SAPT in psi4, default
symmetry c1  #important for SAPT in psi4, default
}

set PROPERTIES_ORIGIN ["COM"]
properties('MP2/aug-cc-pvtz', properties = ['dipole'])
--------------------------------------------------------------------------

  Memory set to  29.802 GiB by Python driver.
    SCF Algorithm Type (re)set to DF.

*** tstart() called on node90.bme.utexas.edu
*** at Mon Nov  2 16:24:50 2020

   => Loading Basis Set <=

    Name: AUG-CC-PVTZ
    Role: ORBITAL
    Keyword: BASIS
    atoms 1-2   entry O          line   327 file /home/xy3866/psi4conda/share/psi4/basis/aug-cc-pvtz.gbs 
    atoms 3-10  entry C          line   235 file /home/xy3866/psi4conda/share/psi4/basis/aug-cc-pvtz.gbs 
    atoms 11-20 entry H          line    36 file /home/xy3866/psi4conda/share/psi4/basis/aug-cc-pvtz.gbs 


         ---------------------------------------------------------
                                   SCF
               by Justin Turney, Rob Parrish, Andy Simmonett
                          and Daniel G. A. Smith
                              RHF Reference
                        8 Threads,  30517 MiB Core
         ---------------------------------------------------------

  ==> Geometry <==

    Molecular point group: c1
    Full point group: C1

    Geometry (in Angstrom), charge = 0, multiplicity = 1:

       Center              X                  Y                   Z               Mass       
    ------------   -----------------  -----------------  -----------------  -----------------
         O            1.761889220396     2.367839858124    -0.145718479238    15.994914619570
         O            1.674514220396    -2.407536141876    -0.127739479238    15.994914619570
         C           -1.022471779604    -0.008258141876     0.364310520762    12.000000000000
         C           -2.514852779604    -0.019981141876     0.563599520762    12.000000000000
         C           -0.323965779604    -1.207928141876     0.234537520762    12.000000000000
         C           -0.337958779604     1.204687858124     0.235034520762    12.000000000000
         C           -3.274469779604    -0.020288141876    -0.764165479238    12.000000000000
         C            1.033787220396     1.210127858124    -0.017939479238    12.000000000000
         C            1.057622720396    -1.186068041876    -0.020726579238    12.000000000000
         C            1.735958220396     0.014244858124    -0.145581479238    12.000000000000
         H           -2.793684779604    -0.903578141876     1.148496520762     1.007825032230
         H           -2.809188779604     0.853319858124     1.157475520762     1.007825032230
         H           -0.832136779604    -2.164086141876     0.331082520762     1.007825032230
         H           -0.879859779604     2.145111858124     0.335352520762     1.007825032230
         H           -3.023998779604     0.866721858124    -1.352611479238     1.007825032230
         H           -4.358306779604    -0.029966141876    -0.605160479238     1.007825032230
         H           -3.008548779604    -0.898666141876    -1.358512479238     1.007825032230
         H            2.806537220396     0.046226858124    -0.336088479238     1.007825032230
         H            1.158165220396     3.121767858124    -0.029808479238     1.007825032230
         H            2.619279220396    -2.246540841876    -0.297237879238     1.007825032230

  Running in c1 symmetry.

  Rotational constants: A =      0.05602  B =      0.03591  C =      0.02319 [cm^-1]
  Rotational constants: A =   1679.44339  B =   1076.57779  C =    695.32992 [MHz]
  Nuclear repulsion =  507.509082130822435

  Charge       = 0
  Multiplicity = 1
  Electrons    = 74
  Nalpha       = 37
  Nbeta        = 37

  ==> Algorithm <==

  SCF Algorithm Type is DF.
  DIIS enabled.
  MOM disabled.
  Fractional occupation disabled.
  Guess Type is SAD.
  Energy threshold   = 1.00e-10
  Density threshold  = 1.00e-10
  Integral threshold = 0.00e+00

  ==> Primary Basis <==

  Basis Set: AUG-CC-PVTZ
    Blend: AUG-CC-PVTZ
    Number of shells: 230
    Number of basis function: 690
    Number of Cartesian functions: 800
    Spherical Harmonics?: true
    Max angular momentum: 3

   => Loading Basis Set <=

    Name: (AUG-CC-PVTZ AUX)
    Role: JKFIT
    Keyword: DF_BASIS_SCF
    atoms 1-2   entry O          line   286 file /home/xy3866/psi4conda/share/psi4/basis/aug-cc-pvtz-jkfit.gbs 
    atoms 3-10  entry C          line   162 file /home/xy3866/psi4conda/share/psi4/basis/aug-cc-pvtz-jkfit.gbs 
    atoms 11-20 entry H          line    70 file /home/xy3866/psi4conda/share/psi4/basis/aug-cc-pvtz-jkfit.gbs 

  ==> Pre-Iterations <==

   -------------------------------------------------------
    Irrep   Nso     Nmo     Nalpha   Nbeta   Ndocc  Nsocc
   -------------------------------------------------------
     A        690     690       0       0       0       0
   -------------------------------------------------------
    Total     690     690      37      37      37       0
   -------------------------------------------------------

  ==> Integral Setup <==

  DFHelper Memory: AOs need 5.102 GiB; user supplied 22.352 GiB. Using in-core AOs.

  ==> MemDFJK: Density-Fitted J/K Matrices <==

    J tasked:                   Yes
    K tasked:                   Yes
    wK tasked:                   No
    OpenMP threads:               8
    Memory [MiB]:             22888
    Algorithm:                 Disk
    Schwarz Cutoff:           1E-12
    Mask sparsity (%):       6.7566
    Fitting Condition:        1E-10

   => Auxiliary Basis Set <=

  Basis Set: (AUG-CC-PVTZ AUX)
    Blend: AUG-CC-PVTZ-JKFIT
    Number of shells: 440
    Number of basis function: 1500
    Number of Cartesian functions: 1860
    Spherical Harmonics?: true
    Max angular momentum: 4

  Minimum eigenvalue in the overlap matrix is 6.3663287378E-07.
  Using Symmetric Orthogonalization.

  SCF Guess: Superposition of Atomic Densities via on-the-fly atomic UHF.

  ==> Iterations <==

                           Total Energy        Delta E     RMS |[F,P]|

   @DF-RHF iter SAD:  -458.02701287268030   -4.58027e+02   0.00000e+00 
   @DF-RHF iter   1:  -458.32369559625215   -2.96683e-01   1.11792e-03 DIIS
   @DF-RHF iter   2:  -458.59816677020075   -2.74471e-01   5.22799e-04 DIIS
   @DF-RHF iter   3:  -458.65557885173195   -5.74121e-02   1.02440e-04 DIIS
   @DF-RHF iter   4:  -458.65922852843028   -3.64968e-03   4.81472e-05 DIIS
   @DF-RHF iter   5:  -458.65986665961623   -6.38131e-04   8.12113e-06 DIIS
   @DF-RHF iter   6:  -458.65989860176700   -3.19422e-05   2.86520e-06 DIIS
   @DF-RHF iter   7:  -458.65990261696544   -4.01520e-06   1.07812e-06 DIIS
   @DF-RHF iter   8:  -458.65990329248297   -6.75518e-07   4.01321e-07 DIIS
   @DF-RHF iter   9:  -458.65990342018097   -1.27698e-07   1.75804e-07 DIIS
   @DF-RHF iter  10:  -458.65990345370716   -3.35262e-08   8.22525e-08 DIIS
   @DF-RHF iter  11:  -458.65990346320774   -9.50058e-09   3.01544e-08 DIIS
   @DF-RHF iter  12:  -458.65990346438366   -1.17592e-09   1.13876e-08 DIIS
   @DF-RHF iter  13:  -458.65990346447990   -9.62359e-11   3.90119e-09 DIIS
   @DF-RHF iter  14:  -458.65990346448757   -7.67386e-12   1.11189e-09 DIIS
   @DF-RHF iter  15:  -458.65990346448876   -1.19371e-12   4.61775e-10 DIIS
   @DF-RHF iter  16:  -458.65990346448865    1.13687e-13   2.01808e-10 DIIS
   @DF-RHF iter  17:  -458.65990346448950   -8.52651e-13   9.87684e-11 DIIS
  Energy and wave function converged.


  ==> Post-Iterations <==

    Orbital Energies [Eh]
    ---------------------

    Doubly Occupied:                                                      

       1A    -20.596003     2A    -20.594078     3A    -11.310962  
       4A    -11.308785     5A    -11.250887     6A    -11.231874  
       7A    -11.223575     8A    -11.222573     9A    -11.219558  
      10A    -11.216732    11A     -1.405826    12A     -1.402674  
      13A     -1.150223    14A     -1.064768    15A     -0.999603  
      16A     -0.988780    17A     -0.876171    18A     -0.837920  
      19A     -0.807613    20A     -0.739646    21A     -0.688553  
      22A     -0.675013    23A     -0.664550    24A     -0.611952  
      25A     -0.602598    26A     -0.595615    27A     -0.587834  
      28A     -0.576773    29A     -0.553126    30A     -0.549110  
      31A     -0.524344    32A     -0.521636    33A     -0.487454  
      34A     -0.481996    35A     -0.453976    36A     -0.327532  
      37A     -0.309997  

    Virtual:                                                              

      38A      0.025883    39A      0.030821    40A      0.033773  
      41A      0.041533    42A      0.045730    43A      0.049621  
      44A      0.059174    45A      0.060849    46A      0.070983  
      47A      0.074861    48A      0.085119    49A      0.094379  
      50A      0.103938    51A      0.106384    52A      0.111995  
      53A      0.116839    54A      0.121167    55A      0.121855  
      56A      0.124523    57A      0.128629    58A      0.131417  
      59A      0.135182    60A      0.135655    61A      0.137057  
      62A      0.142935    63A      0.151395    64A      0.154835  
      65A      0.157353    66A      0.158998    67A      0.162938  
      68A      0.165401    69A      0.175246    70A      0.179921  
      71A      0.185380    72A      0.189940    73A      0.198971  
      74A      0.205965    75A      0.214946    76A      0.219762  
      77A      0.223310    78A      0.230733    79A      0.238803  
      80A      0.240973    81A      0.250048    82A      0.252540  
      83A      0.254785    84A      0.258740    85A      0.266660  
      86A      0.270018    87A      0.276138    88A      0.283479  
      89A      0.287185    90A      0.288501    91A      0.294881  
      92A      0.299966    93A      0.307077    94A      0.317329  
      95A      0.325048    96A      0.329173    97A      0.332105  
      98A      0.336827    99A      0.340362   100A      0.342589  
     101A      0.346462   102A      0.352355   103A      0.359523  
     104A      0.364140   105A      0.367240   106A      0.371088  
     107A      0.379208   108A      0.381725   109A      0.388743  
     110A      0.392777   111A      0.396835   112A      0.406322  
     113A      0.406877   114A      0.410571   115A      0.414807  
     116A      0.420681   117A      0.429095   118A      0.433211  
     119A      0.434340   120A      0.437308   121A      0.446292  
     122A      0.449566   123A      0.450088   124A      0.457456  
     125A      0.461392   126A      0.466862   127A      0.471818  
     128A      0.475114   129A      0.481420   130A      0.485238  
     131A      0.487755   132A      0.495136   133A      0.499774  
     134A      0.502819   135A      0.503689   136A      0.510952  
     137A      0.513947   138A      0.515330   139A      0.519361  
     140A      0.523588   141A      0.527044   142A      0.531562  
     143A      0.538600   144A      0.544179   145A      0.547682  
     146A      0.552243   147A      0.557666   148A      0.564704  
     149A      0.573469   150A      0.581896   151A      0.585785  
     152A      0.592431   153A      0.595419   154A      0.601112  
     155A      0.606079   156A      0.609715   157A      0.618506  
     158A      0.622219   159A      0.633398   160A      0.636097  
     161A      0.648074   162A      0.654502   163A      0.663173  
     164A      0.668155   165A      0.679593   166A      0.683624  
     167A      0.690266   168A      0.699987   169A      0.703013  
     170A      0.716459   171A      0.719920   172A      0.732992  
     173A      0.743531   174A      0.745761   175A      0.751291  
     176A      0.757260   177A      0.766277   178A      0.782735  
     179A      0.786298   180A      0.801593   181A      0.803697  
     182A      0.808264   183A      0.815117   184A      0.817750  
     185A      0.822197   186A      0.823377   187A      0.833916  
     188A      0.837315   189A      0.847424   190A      0.853233  
     191A      0.860329   192A      0.871603   193A      0.877552  
     194A      0.884652   195A      0.887529   196A      0.894940  
     197A      0.899728   198A      0.906179   199A      0.909392  
     200A      0.910051   201A      0.913679   202A      0.915303  
     203A      0.918831   204A      0.930018   205A      0.939035  
     206A      0.942274   207A      0.946442   208A      0.947895  
     209A      0.952327   210A      0.962840   211A      0.974513  
     212A      0.978035   213A      0.980796   214A      0.990501  
     215A      0.994216   216A      0.997351   217A      1.001161  
     218A      1.007132   219A      1.012623   220A      1.024146  
     221A      1.029506   222A      1.031593   223A      1.038379  
     224A      1.042826   225A      1.047157   226A      1.053399  
     227A      1.057945   228A      1.061297   229A      1.068341  
     230A      1.072933   231A      1.077834   232A      1.081538  
     233A      1.087827   234A      1.090673   235A      1.105353  
     236A      1.107425   237A      1.115047   238A      1.120258  
     239A      1.121930   240A      1.129236   241A      1.133363  
     242A      1.143374   243A      1.146558   244A      1.152079  
     245A      1.164788   246A      1.166771   247A      1.172195  
     248A      1.182660   249A      1.187654   250A      1.191688  
     251A      1.194704   252A      1.201394   253A      1.207734  
     254A      1.211166   255A      1.216343   256A      1.221564  
     257A      1.225903   258A      1.235933   259A      1.248208  
     260A      1.249616   261A      1.267699   262A      1.270348  
     263A      1.277421   264A      1.280284   265A      1.289273  
     266A      1.289719   267A      1.300511   268A      1.309984  
     269A      1.317805   270A      1.324625   271A      1.334200  
     272A      1.341552   273A      1.347471   274A      1.357003  
     275A      1.368442   276A      1.386627   277A      1.395924  
     278A      1.402061   279A      1.414148   280A      1.419863  
     281A      1.426253   282A      1.428490   283A      1.435717  
     284A      1.446387   285A      1.452359   286A      1.460591  
     287A      1.463921   288A      1.474603   289A      1.481129  
     290A      1.497886   291A      1.502979   292A      1.517818  
     293A      1.520258   294A      1.533201   295A      1.540680  
     296A      1.550811   297A      1.561794   298A      1.573956  
     299A      1.583734   300A      1.587701   301A      1.598058  
     302A      1.601732   303A      1.605933   304A      1.623223  
     305A      1.628076   306A      1.634947   307A      1.646179  
     308A      1.646710   309A      1.658485   310A      1.663942  
     311A      1.677673   312A      1.681549   313A      1.688044  
     314A      1.701954   315A      1.705015   316A      1.710725  
     317A      1.719941   318A      1.729278   319A      1.740285  
     320A      1.748201   321A      1.759337   322A      1.761284  
     323A      1.770825   324A      1.795126   325A      1.797105  
     326A      1.802689   327A      1.811337   328A      1.817421  
     329A      1.823939   330A      1.828417   331A      1.841871  
     332A      1.851838   333A      1.859508   334A      1.860278  
     335A      1.870983   336A      1.875553   337A      1.885261  
     338A      1.890712   339A      1.900751   340A      1.902569  
     341A      1.916807   342A      1.925053   343A      1.931518  
     344A      1.933623   345A      1.943728   346A      1.961478  
     347A      1.974298   348A      1.977852   349A      1.997737  
     350A      2.004540   351A      2.011273   352A      2.015063  
     353A      2.032346   354A      2.045245   355A      2.055969  
     356A      2.056689   357A      2.062685   358A      2.080561  
     359A      2.096452   360A      2.101510   361A      2.117446  
     362A      2.125190   363A      2.138278   364A      2.141773  
     365A      2.157473   366A      2.161670   367A      2.175567  
     368A      2.181577   369A      2.189241   370A      2.201363  
     371A      2.203982   372A      2.218734   373A      2.240517  
     374A      2.243081   375A      2.250107   376A      2.261197  
     377A      2.272192   378A      2.274985   379A      2.285199  
     380A      2.312217   381A      2.316777   382A      2.323355  
     383A      2.330097   384A      2.361034   385A      2.364246  
     386A      2.382163   387A      2.385849   388A      2.411099  
     389A      2.428589   390A      2.440130   391A      2.448136  
     392A      2.465957   393A      2.473266   394A      2.498823  
     395A      2.508229   396A      2.510326   397A      2.526051  
     398A      2.529123   399A      2.547514   400A      2.549467  
     401A      2.552303   402A      2.566695   403A      2.577427  
     404A      2.601220   405A      2.626385   406A      2.636385  
     407A      2.653282   408A      2.667032   409A      2.679507  
     410A      2.708148   411A      2.741556   412A      2.757156  
     413A      2.781180   414A      2.799096   415A      2.815130  
     416A      2.821160   417A      2.830573   418A      2.839386  
     419A      2.850808   420A      2.887931   421A      2.899349  
     422A      2.939992   423A      2.942241   424A      2.954238  
     425A      2.962424   426A      2.975452   427A      3.009890  
     428A      3.022187   429A      3.065229   430A      3.098414  
     431A      3.144357   432A      3.156491   433A      3.165176  
     434A      3.184861   435A      3.228754   436A      3.246968  
     437A      3.265683   438A      3.269108   439A      3.285913  
     440A      3.308134   441A      3.326083   442A      3.342946  
     443A      3.351934   444A      3.359057   445A      3.385533  
     446A      3.392899   447A      3.411603   448A      3.427715  
     449A      3.458736   450A      3.464301   451A      3.474849  
     452A      3.489439   453A      3.495537   454A      3.508557  
     455A      3.512516   456A      3.530725   457A      3.544596  
     458A      3.551381   459A      3.554830   460A      3.563892  
     461A      3.570450   462A      3.586199   463A      3.598585  
     464A      3.619458   465A      3.625745   466A      3.637973  
     467A      3.651016   468A      3.659780   469A      3.662949  
     470A      3.686588   471A      3.689318   472A      3.700722  
     473A      3.721305   474A      3.734684   475A      3.738650  
     476A      3.752725   477A      3.761729   478A      3.769486  
     479A      3.784503   480A      3.797829   481A      3.805648  
     482A      3.821623   483A      3.834972   484A      3.856937  
     485A      3.863117   486A      3.873525   487A      3.889012  
     488A      3.900588   489A      3.906064   490A      3.915865  
     491A      3.918120   492A      3.931642   493A      3.947773  
     494A      3.953141   495A      3.961129   496A      3.969925  
     497A      3.980390   498A      3.986457   499A      4.006537  
     500A      4.019954   501A      4.028070   502A      4.038213  
     503A      4.046793   504A      4.049838   505A      4.058251  
     506A      4.082244   507A      4.090626   508A      4.105589  
     509A      4.112530   510A      4.121723   511A      4.137775  
     512A      4.140954   513A      4.143077   514A      4.166704  
     515A      4.182422   516A      4.192025   517A      4.208377  
     518A      4.216607   519A      4.219213   520A      4.228115  
     521A      4.238071   522A      4.248657   523A      4.260228  
     524A      4.282275   525A      4.282454   526A      4.295554  
     527A      4.316059   528A      4.323579   529A      4.334448  
     530A      4.345320   531A      4.360251   532A      4.371803  
     533A      4.376207   534A      4.385251   535A      4.390486  
     536A      4.401388   537A      4.422221   538A      4.427832  
     539A      4.441702   540A      4.465029   541A      4.489919  
     542A      4.490558   543A      4.495325   544A      4.506986  
     545A      4.523568   546A      4.529484   547A      4.538984  
     548A      4.544474   549A      4.554322   550A      4.565325  
     551A      4.572680   552A      4.587146   553A      4.592756  
     554A      4.614922   555A      4.640827   556A      4.665685  
     557A      4.667750   558A      4.678233   559A      4.680220  
     560A      4.711003   561A      4.721462   562A      4.725949  
     563A      4.737469   564A      4.747912   565A      4.786533  
     566A      4.795071   567A      4.798075   568A      4.802092  
     569A      4.823475   570A      4.838799   571A      4.856586  
     572A      4.875581   573A      4.889407   574A      4.903114  
     575A      4.914126   576A      4.933444   577A      4.937234  
     578A      4.945961   579A      4.971987   580A      4.987915  
     581A      4.998476   582A      5.021833   583A      5.035501  
     584A      5.045518   585A      5.065316   586A      5.085490  
     587A      5.090287   588A      5.119645   589A      5.133630  
     590A      5.145354   591A      5.161307   592A      5.168925  
     593A      5.183825   594A      5.206910   595A      5.215910  
     596A      5.249130   597A      5.262140   598A      5.279695  
     599A      5.286362   600A      5.292579   601A      5.304169  
     602A      5.318220   603A      5.320024   604A      5.327800  
     605A      5.363222   606A      5.375020   607A      5.394061  
     608A      5.410274   609A      5.414749   610A      5.444014  
     611A      5.444824   612A      5.456984   613A      5.462169  
     614A      5.495619   615A      5.540651   616A      5.559953  
     617A      5.587548   618A      5.599544   619A      5.625042  
     620A      5.648160   621A      5.683940   622A      5.714315  
     623A      5.729108   624A      5.757256   625A      5.788783  
     626A      5.798699   627A      5.804652   628A      5.816980  
     629A      5.868841   630A      5.890355   631A      5.908122  
     632A      6.014272   633A      6.076366   634A      6.106997  
     635A      6.171848   636A      6.228863   637A      6.240097  
     638A      6.248074   639A      6.274722   640A      6.302249  
     641A      6.332847   642A      6.405063   643A      6.414483  
     644A      6.433235   645A      6.455306   646A      6.554698  
     647A      6.642800   648A      6.662565   649A      6.740585  
     650A      6.774985   651A      6.788656   652A      6.797014  
     653A      6.840439   654A      6.872788   655A      6.893937  
     656A      6.910599   657A      6.965850   658A      6.984522  
     659A      7.032654   660A      7.045351   661A      7.073576  
     662A      7.204652   663A      7.254703   664A      7.258353  
     665A      7.392150   666A      7.420603   667A      7.449009  
     668A      7.460587   669A      7.576464   670A      7.656864  
     671A      7.689316   672A      7.702908   673A      7.712049  
     674A      7.795606   675A      7.965147   676A      8.042345  
     677A      8.374280   678A      8.404026   679A      8.635721  
     680A      8.652548   681A     16.236483   682A     16.284170  
     683A     16.465741   684A     17.223247   685A     17.876994  
     686A     18.580461   687A     19.341943   688A     19.859208  
     689A     20.447254   690A     21.055845  

    Final Occupation by Irrep:
              A 
    DOCC [    37 ]

  @DF-RHF Final Energy:  -458.65990346448950

   => Energetics <=

    Nuclear Repulsion Energy =            507.5090821308224349
    One-Electron Energy =               -1631.0173543027312917
    Two-Electron Energy =                 664.8483687074193540
    Total Energy =                       -458.6599034644895028

Computation Completed

*** tstop() called on node90.bme.utexas.edu at Mon Nov  2 16:28:41 2020
Module time:
	user time   =     332.92 seconds =       5.55 minutes
	system time =      39.80 seconds =       0.66 minutes
	total time  =        231 seconds =       3.85 minutes
Total time:
	user time   =     332.92 seconds =       5.55 minutes
	system time =      39.80 seconds =       0.66 minutes
	total time  =        231 seconds =       3.85 minutes
   => Loading Basis Set <=

    Name: (AUG-CC-PVTZ AUX)
    Role: RIFIT
    Keyword: DF_BASIS_MP2
    atoms 1-2   entry O          line   264 file /home/xy3866/psi4conda/share/psi4/basis/aug-cc-pvtz-ri.gbs 
    atoms 3-10  entry C          line   148 file /home/xy3866/psi4conda/share/psi4/basis/aug-cc-pvtz-ri.gbs 
    atoms 11-20 entry H          line    30 file /home/xy3866/psi4conda/share/psi4/basis/aug-cc-pvtz-ri.gbs 


*** tstart() called on node90.bme.utexas.edu
*** at Mon Nov  2 16:28:41 2020


  //>>>>>>>>>>>>>>>>>>>>>>>>>>>>>>>>>>>//
  //               DFMP2               //
  //<<<<<<<<<<<<<<<<<<<<<<<<<<<<<<<<<<<//

	 --------------------------------------------------------
	                          DF-MP2                         
	      2nd-Order Density-Fitted Moller-Plesset Theory     
	              RMP2 Wavefunction,   8 Threads             
	                                                         
	        Rob Parrish, Justin Turney, Andy Simmonett,      
	           Ed Hohenstein, and C. David Sherrill          
	 --------------------------------------------------------

   => Auxiliary Basis Set <=

  Basis Set: (AUG-CC-PVTZ AUX)
    Blend: AUG-CC-PVTZ-RI
    Number of shells: 420
    Number of basis function: 1520
    Number of Cartesian functions: 1910
    Spherical Harmonics?: true
    Max angular momentum: 4

	 --------------------------------------------------------
	                 NBF =   690, NAUX =  1520
	 --------------------------------------------------------
	   CLASS    FOCC     OCC    AOCC    AVIR     VIR    FVIR
	   PAIRS       0      37      37     653     653       0
	 --------------------------------------------------------

  DFHelper Memory: AOs need 5.102 GiB; user supplied 22.352 GiB. Using in-core AOs.


         ------------------------------------------------------------
                                     CPHF                           
                                  Rob Parrish                       
         ------------------------------------------------------------

  ==> Geometry <==

    Molecular point group: c1
    Full point group: C1

    Geometry (in Angstrom), charge = 0, multiplicity = 1:

       Center              X                  Y                   Z               Mass       
    ------------   -----------------  -----------------  -----------------  -----------------
         O            1.761889220396     2.367839858124    -0.145718479238    15.994914619570
         O            1.674514220396    -2.407536141876    -0.127739479238    15.994914619570
         C           -1.022471779604    -0.008258141876     0.364310520762    12.000000000000
         C           -2.514852779604    -0.019981141876     0.563599520762    12.000000000000
         C           -0.323965779604    -1.207928141876     0.234537520762    12.000000000000
         C           -0.337958779604     1.204687858124     0.235034520762    12.000000000000
         C           -3.274469779604    -0.020288141876    -0.764165479238    12.000000000000
         C            1.033787220396     1.210127858124    -0.017939479238    12.000000000000
         C            1.057622720396    -1.186068041876    -0.020726579238    12.000000000000
         C            1.735958220396     0.014244858124    -0.145581479238    12.000000000000
         H           -2.793684779604    -0.903578141876     1.148496520762     1.007825032230
         H           -2.809188779604     0.853319858124     1.157475520762     1.007825032230
         H           -0.832136779604    -2.164086141876     0.331082520762     1.007825032230
         H           -0.879859779604     2.145111858124     0.335352520762     1.007825032230
         H           -3.023998779604     0.866721858124    -1.352611479238     1.007825032230
         H           -4.358306779604    -0.029966141876    -0.605160479238     1.007825032230
         H           -3.008548779604    -0.898666141876    -1.358512479238     1.007825032230
         H            2.806537220396     0.046226858124    -0.336088479238     1.007825032230
         H            1.158165220396     3.121767858124    -0.029808479238     1.007825032230
         H            2.619279220396    -2.246540841876    -0.297237879238     1.007825032230

  Nuclear repulsion =  507.509082130822435
  Reference energy  = -458.659903464489503

  ==> Basis Set <==

  Basis Set: AUG-CC-PVTZ
    Blend: AUG-CC-PVTZ
    Number of shells: 230
    Number of basis function: 690
    Number of Cartesian functions: 800
    Spherical Harmonics?: true
    Max angular momentum: 3

  ==> CGRSolver (by Rob Parrish) <==

   Number of roots    =         1
   Preconditioning    =    JACOBI
   Convergence cutoff =     1E-06
   Maximum iterations =       100

  ==> CPHFRHamiltonian (by Rob Parrish) <== 

  ==> MemDFJK: Density-Fitted J/K Matrices <==

    J tasked:                   Yes
    K tasked:                   Yes
    wK tasked:                   No
    OpenMP threads:               8
    Memory [MiB]:             22888
    Algorithm:                 Disk
    Schwarz Cutoff:           1E-12
    Mask sparsity (%):       6.7566
    Fitting Condition:        1E-10

   => Auxiliary Basis Set <=

  Basis Set: (AUG-CC-PVTZ AUX)
    Blend: AUG-CC-PVTZ-JKFIT
    Number of shells: 440
    Number of basis function: 1500
    Number of Cartesian functions: 1860
    Spherical Harmonics?: true
    Max angular momentum: 4

  ==> CPHF Iterations <==

  => Iterations <=

             Iter  Converged  Remaining    Residual
  CGR           1          0          1   1.019E-01
  CGR           2          0          1   3.866E-02
  CGR           3          0          1   2.576E-02
  CGR           4          0          1   8.192E-03
  CGR           5          0          1   2.688E-03
  CGR           6          0          1   1.069E-03
  CGR           7          0          1   3.434E-04
  CGR           8          0          1   9.853E-05
  CGR           9          0          1   3.076E-05
  CGR          10          0          1   1.189E-05
  CGR          11          0          1   5.517E-06
  CGR          12          0          1   2.664E-06
  CGR          13          1          0   8.582E-07

    CGRSolver converged.

	-----------------------------------------------------------
	 ==================> DF-MP2 Energies <==================== 
	-----------------------------------------------------------
	 Reference Energy          =    -458.6599034644895028 [Eh]
	 Singles Energy            =      -0.0000000000000000 [Eh]
	 Same-Spin Energy          =      -0.4817530190632831 [Eh]
	 Opposite-Spin Energy      =      -1.5053067704176846 [Eh]
	 Correlation Energy        =      -1.9870597894809676 [Eh]
	 Total Energy              =    -460.6469632539704548 [Eh]
	-----------------------------------------------------------
	 ================> DF-SCS-MP2 Energies <================== 
	-----------------------------------------------------------
	 SCS Same-Spin Scale       =       0.3333333333333333 [-]
	 SCS Opposite-Spin Scale   =       1.2000000000000000 [-]
	 SCS Same-Spin Energy      =      -0.1605843396877610 [Eh]
	 SCS Opposite-Spin Energy  =      -1.8063681245012213 [Eh]
	 SCS Correlation Energy    =      -1.9669524641889824 [Eh]
	 SCS Total Energy          =    -460.6268559286784807 [Eh]
	-----------------------------------------------------------



Properties will be evaluated at  -0.000000,   0.000000,  -0.000000 [a0]

Properties computed using the MP2 density matrix

  Nuclear Dipole Moment: [e a0]
     X:   -10.4098      Y:     0.7407      Z:    -0.9454

  Electronic Dipole Moment: [e a0]
     X:    10.2183      Y:    -0.2563      Z:     0.9484

  Dipole Moment: [e a0]
     X:    -0.1915      Y:     0.4844      Z:     0.0030     Total:     0.5209

  Dipole Moment: [D]
     X:    -0.4868      Y:     1.2313      Z:     0.0077     Total:     1.3241


*** tstop() called on node90.bme.utexas.edu at Mon Nov  2 16:32:05 2020
Module time:
	user time   =    1076.24 seconds =      17.94 minutes
	system time =      47.98 seconds =       0.80 minutes
	total time  =        204 seconds =       3.40 minutes
Total time:
	user time   =    1410.43 seconds =      23.51 minutes
	system time =      87.85 seconds =       1.46 minutes
	total time  =        435 seconds =       7.25 minutes

    Psi4 stopped on: Monday, 02 November 2020 04:32PM
    Psi4 wall time for execution: 0:07:15.94

*** Psi4 exiting successfully. Buy a developer a beer!
