opt=Tight                                                               
Freq      RMP2-FC                                                     6-31G(d)            
Number of atoms                            I                8
Info1-9                                    I   N=           9
          17          17        1002           0           0         100
           6           2           1
Charge                                     I               -1
Multiplicity                               I                1
Number of electrons                        I               34
Number of alpha electrons                  I               17
Number of beta electrons                   I               17
Number of basis functions                  I               59
Number of independent functions            I               59
Number of point charges in /Mol/           I                0
Number of translation vectors              I                0
Atomic numbers                             I   N=           8
          16           6           6           1           1           1
           1           1
Nuclear charges                            R   N=           8
  1.60000000E+01  6.00000000E+00  6.00000000E+00  1.00000000E+00  1.00000000E+00
  1.00000000E+00  1.00000000E+00  1.00000000E+00
Current cartesian coordinates              R   N=          24
  2.26705714E+00 -2.91327817E-01 -2.37757434E-05 -8.56341338E-01  1.21097694E+00
  1.31769903E-05 -3.04194494E+00 -6.69485649E-01  2.79469736E-05 -1.04777433E+00
  2.44216324E+00  1.65614575E+00 -1.04780698E+00  2.44217493E+00 -1.65610690E+00
 -4.87530291E+00  3.00131009E-01  4.56003930E-05 -2.95617049E+00 -1.88608236E+00
 -1.66904946E+00 -2.95614194E+00 -1.88608947E+00  1.66909867E+00
Force Field                                I                0
Int Atom Types                             I   N=           8
           0           0           0           0           0           0
           0           0
MM charges                                 R   N=           8
  0.00000000E+00  0.00000000E+00  0.00000000E+00  0.00000000E+00  0.00000000E+00
  0.00000000E+00  0.00000000E+00  0.00000000E+00
Integer atomic weights                     I   N=           8
          32          12          12           1           1           1
           1           1
Real atomic weights                        R   N=           8
  3.19720718E+01  1.20000000E+01  1.20000000E+01  1.00782504E+00  1.00782504E+00
  1.00782504E+00  1.00782504E+00  1.00782504E+00
Atom fragment info                         I   N=           8
           0           0           0           0           0           0
           0           0
Atom residue num                           I   N=           8
           0           0           0           0           0           0
           0           0
Nuclear spins                              I   N=           8
           0           0           0           1           1           1
           1           1
Nuclear ZEff                               R   N=           8
 -1.36000000E+01 -3.60000000E+00 -3.60000000E+00 -1.00000000E+00 -1.00000000E+00
 -1.00000000E+00 -1.00000000E+00 -1.00000000E+00
Nuclear QMom                               R   N=           8
  0.00000000E+00  0.00000000E+00  0.00000000E+00  0.00000000E+00  0.00000000E+00
  0.00000000E+00  0.00000000E+00  0.00000000E+00
Nuclear GFac                               R   N=           8
  0.00000000E+00  0.00000000E+00  0.00000000E+00  2.79284600E+00  2.79284600E+00
  2.79284600E+00  2.79284600E+00  2.79284600E+00
MicOpt                                     I   N=           8
          -1          -1          -1          -1          -1          -1
          -1          -1
Number of contracted shells                I               23
Number of primitive shells                 I               59
Pure/Cartesian d shells                    I                1
Pure/Cartesian f shells                    I                0
Highest angular momentum                   I                2
Largest degree of contraction              I                6
Shell types                                I   N=          23
           0          -1          -1          -1           2           0
          -1          -1           2           0          -1          -1
           2           0           0           0           0           0
           0           0           0           0           0
Number of primitives per shell             I   N=          23
           6           6           3           1           1           6
           3           1           1           6           3           1
           1           3           1           3           1           3
           1           3           1           3           1
Shell to atom map                          I   N=          23
           1           1           1           1           1           2
           2           2           2           3           3           3
           3           4           4           5           5           6
           6           7           7           8           8
Primitive exponents                        R   N=          59
  2.19171000E+04  3.30149000E+03  7.54146000E+02  2.12711000E+02  6.79896000E+01
  2.30515000E+01  4.23735000E+02  1.00710000E+02  3.21599000E+01  1.18079000E+01
  4.63110000E+00  1.87025000E+00  2.61584000E+00  9.22167000E-01  3.41287000E-01
  1.17167000E-01  6.50000000E-01  3.04752488E+03  4.57369518E+02  1.03948685E+02
  2.92101553E+01  9.28666296E+00  3.16392696E+00  7.86827235E+00  1.88128854E+00
  5.44249258E-01  1.68714478E-01  8.00000000E-01  3.04752488E+03  4.57369518E+02
  1.03948685E+02  2.92101553E+01  9.28666296E+00  3.16392696E+00  7.86827235E+00
  1.88128854E+00  5.44249258E-01  1.68714478E-01  8.00000000E-01  1.87311370E+01
  2.82539436E+00  6.40121692E-01  1.61277759E-01  1.87311370E+01  2.82539436E+00
  6.40121692E-01  1.61277759E-01  1.87311370E+01  2.82539436E+00  6.40121692E-01
  1.61277759E-01  1.87311370E+01  2.82539436E+00  6.40121692E-01  1.61277759E-01
  1.87311370E+01  2.82539436E+00  6.40121692E-01  1.61277759E-01
Contraction coefficients                   R   N=          59
  1.86924085E-03  1.42303065E-02  6.96962317E-02  2.38487108E-01  4.83307220E-01
  3.38074154E-01 -2.37677050E-03 -3.16930067E-02 -1.13317024E-01  5.60900118E-02
  5.92255124E-01  4.55006095E-01 -2.50373114E-01  6.69567631E-02  1.05450627E+00
  1.00000000E+00  1.00000000E+00  1.83473713E-03  1.40373228E-02  6.88426223E-02
  2.32184443E-01  4.67941348E-01  3.62311985E-01 -1.19332420E-01 -1.60854152E-01
  1.14345644E+00  1.00000000E+00  1.00000000E+00  1.83473713E-03  1.40373228E-02
  6.88426223E-02  2.32184443E-01  4.67941348E-01  3.62311985E-01 -1.19332420E-01
 -1.60854152E-01  1.14345644E+00  1.00000000E+00  1.00000000E+00  3.34946043E-02
  2.34726953E-01  8.13757326E-01  1.00000000E+00  3.34946043E-02  2.34726953E-01
  8.13757326E-01  1.00000000E+00  3.34946043E-02  2.34726953E-01  8.13757326E-01
  1.00000000E+00  3.34946043E-02  2.34726953E-01  8.13757326E-01  1.00000000E+00
  3.34946043E-02  2.34726953E-01  8.13757326E-01  1.00000000E+00
P(S=P) Contraction coefficients            R   N=          59
  0.00000000E+00  0.00000000E+00  0.00000000E+00  0.00000000E+00  0.00000000E+00
  0.00000000E+00  4.06100998E-03  3.06812999E-02  1.30451999E-01  3.27204999E-01
  4.52850998E-01  2.56041999E-01 -1.45104895E-02  3.10262776E-01  7.54482456E-01
  1.00000000E+00  0.00000000E+00  0.00000000E+00  0.00000000E+00  0.00000000E+00
  0.00000000E+00  0.00000000E+00  0.00000000E+00  6.89990666E-02  3.16423961E-01
  7.44308291E-01  1.00000000E+00  0.00000000E+00  0.00000000E+00  0.00000000E+00
  0.00000000E+00  0.00000000E+00  0.00000000E+00  0.00000000E+00  6.89990666E-02
  3.16423961E-01  7.44308291E-01  1.00000000E+00  0.00000000E+00  0.00000000E+00
  0.00000000E+00  0.00000000E+00  0.00000000E+00  0.00000000E+00  0.00000000E+00
  0.00000000E+00  0.00000000E+00  0.00000000E+00  0.00000000E+00  0.00000000E+00
  0.00000000E+00  0.00000000E+00  0.00000000E+00  0.00000000E+00  0.00000000E+00
  0.00000000E+00  0.00000000E+00  0.00000000E+00  0.00000000E+00
Coordinates of each shell                  R   N=          69
  2.26705714E+00 -2.91327817E-01 -2.37757434E-05  2.26705714E+00 -2.91327817E-01
 -2.37757434E-05  2.26705714E+00 -2.91327817E-01 -2.37757434E-05  2.26705714E+00
 -2.91327817E-01 -2.37757434E-05  2.26705714E+00 -2.91327817E-01 -2.37757434E-05
 -8.56341338E-01  1.21097694E+00  1.31769903E-05 -8.56341338E-01  1.21097694E+00
  1.31769903E-05 -8.56341338E-01  1.21097694E+00  1.31769903E-05 -8.56341338E-01
  1.21097694E+00  1.31769903E-05 -3.04194494E+00 -6.69485649E-01  2.79469736E-05
 -3.04194494E+00 -6.69485649E-01  2.79469736E-05 -3.04194494E+00 -6.69485649E-01
  2.79469736E-05 -3.04194494E+00 -6.69485649E-01  2.79469736E-05 -1.04777433E+00
  2.44216324E+00  1.65614575E+00 -1.04777433E+00  2.44216324E+00  1.65614575E+00
 -1.04780698E+00  2.44217493E+00 -1.65610690E+00 -1.04780698E+00  2.44217493E+00
 -1.65610690E+00 -4.87530291E+00  3.00131009E-01  4.56003930E-05 -4.87530291E+00
  3.00131009E-01  4.56003930E-05 -2.95617049E+00 -1.88608236E+00 -1.66904946E+00
 -2.95617049E+00 -1.88608236E+00 -1.66904946E+00 -2.95614194E+00 -1.88608947E+00
  1.66909867E+00 -2.95614194E+00 -1.88608947E+00  1.66909867E+00
Constraint Structure                       R   N=          24
  2.26705714E+00 -2.91327817E-01 -2.37757434E-05 -8.56341338E-01  1.21097694E+00
  1.31769903E-05 -3.04194494E+00 -6.69485649E-01  2.79469736E-05 -1.04777433E+00
  2.44216324E+00  1.65614575E+00 -1.04780698E+00  2.44217493E+00 -1.65610690E+00
 -4.87530291E+00  3.00131009E-01  4.56003930E-05 -2.95617049E+00 -1.88608236E+00
 -1.66904946E+00 -2.95614194E+00 -1.88608947E+00  1.66909867E+00
Num ILSW                                   I              100
ILSW                                       I   N=         100
           0           1           0           0           2           0
           0           0           0           0           0          -1
           0           0           0           0           0           0
           0           0           0           0           1           0
           1           0           0           0           0           0
           0           0      100000           0          -1           0
           0           0           0           0           0           0
           0           0           0           1           1           0
           0           0           1           0           0           0
           0           0           4          40           0           0
           0           0           0           0           0           0
           0           0           0           0           0           0
           0           0           0           0           0           0
           0           0           0           0           0           0
           0           0           0           0           0           0
           0           0           0           0           0           0
           0           0           0           0
Num RLSW                                   I               40
RLSW                                       R   N=          40
  1.00000000E+00  1.00000000E+00  1.00000000E+00  1.00000000E+00  1.00000000E+00
  0.00000000E+00  0.00000000E+00  1.00000000E+00  0.00000000E+00  0.00000000E+00
  0.00000000E+00  0.00000000E+00  1.00000000E+00  0.00000000E+00  0.00000000E+00
  0.00000000E+00  0.00000000E+00  1.00000000E+00  0.00000000E+00  0.00000000E+00
  0.00000000E+00  0.00000000E+00  1.00000000E+00  0.00000000E+00  0.00000000E+00
  0.00000000E+00  0.00000000E+00  1.00000000E+00  0.00000000E+00  0.00000000E+00
  0.00000000E+00  0.00000000E+00  0.00000000E+00  0.00000000E+00  0.00000000E+00
  0.00000000E+00  0.00000000E+00  0.00000000E+00  1.00000000E+00  1.00000000E+00
MxBond                                     I                4
NBond                                      I   N=           8
           1           4           4           1           1           1
           1           1
IBond                                      I   N=          32
           2           0           0           0           1           3
           4           5           2           6           7           8
           2           0           0           0           2           0
           0           0           3           0           0           0
           3           0           0           0           3           0
           0           0
RBond                                      R   N=          32
  1.00000000E+00  0.00000000E+00  0.00000000E+00  0.00000000E+00  1.00000000E+00
  1.00000000E+00  1.00000000E+00  1.00000000E+00  1.00000000E+00  1.00000000E+00
  1.00000000E+00  1.00000000E+00  1.00000000E+00  0.00000000E+00  0.00000000E+00
  0.00000000E+00  1.00000000E+00  0.00000000E+00  0.00000000E+00  0.00000000E+00
  1.00000000E+00  0.00000000E+00  0.00000000E+00  0.00000000E+00  1.00000000E+00
  0.00000000E+00  0.00000000E+00  0.00000000E+00  1.00000000E+00  0.00000000E+00
  0.00000000E+00  0.00000000E+00
Virial Ratio                               R      2.000739987677966E+00
SCF Energy                                 R     -4.762613101070408E+02
MP2 Energy                                 R     -4.766444540960669E+02
Total Energy                               R     -4.766444540960669E+02
Post-SCF wavefunction norm                 R      1.510990846529426E+00
RMS Force                                  R      5.417477475979603E-06
RMS Density                                R      1.123775026392364E-09
External E-field                           R   N=          35
  0.00000000E+00  0.00000000E+00  0.00000000E+00  0.00000000E+00  0.00000000E+00
  0.00000000E+00  0.00000000E+00  0.00000000E+00  0.00000000E+00  0.00000000E+00
  0.00000000E+00  0.00000000E+00  0.00000000E+00  0.00000000E+00  0.00000000E+00
  0.00000000E+00  0.00000000E+00  0.00000000E+00  0.00000000E+00  0.00000000E+00
  0.00000000E+00  0.00000000E+00  0.00000000E+00  0.00000000E+00  0.00000000E+00
  0.00000000E+00  0.00000000E+00  0.00000000E+00  0.00000000E+00  0.00000000E+00
  0.00000000E+00  0.00000000E+00  0.00000000E+00  0.00000000E+00  0.00000000E+00
IOpCl                                      I                0
IROHF                                      I                0
Alpha Orbital Energies                     R   N=          59
 -9.18330791E+01 -1.12184853E+01 -1.12003948E+01 -8.84027290E+00 -6.52409963E+00
 -6.52132510E+00 -6.52129182E+00 -1.01434039E+00 -8.60599431E-01 -7.40723197E-01
 -5.89846870E-01 -5.52116196E-01 -4.95340886E-01 -4.76727355E-01 -3.95975222E-01
 -2.74694521E-01 -2.73844614E-01  2.35447691E-01  2.86606570E-01  3.15488908E-01
  3.16855312E-01  3.46183204E-01  3.48146342E-01  4.10785925E-01  5.39855438E-01
  6.18918511E-01  6.20508216E-01  6.29806993E-01  7.34799316E-01  7.68596780E-01
  8.61142721E-01  8.62504005E-01  8.88270949E-01  9.80558405E-01  1.14285082E+00
  1.16255797E+00  1.16579657E+00  1.17983216E+00  1.19998404E+00  1.21029469E+00
  1.25189216E+00  1.27413250E+00  1.30826504E+00  1.31660846E+00  1.42521016E+00
  1.74508539E+00  1.85717574E+00  1.87663876E+00  2.26929132E+00  2.31015927E+00
  2.34805387E+00  2.57407941E+00  2.65211670E+00  2.66055083E+00  2.68552714E+00
  2.96688655E+00  4.42147205E+00  4.60780805E+00  4.81952294E+00
Alpha MO coefficients                      R   N=        3481
  9.96258058E-01  1.42547598E-02 -6.40590494E-05  2.72115323E-05  7.49194218E-10
 -1.99161538E-02  1.25557221E-04 -3.68540199E-05 -1.37494119E-09  2.52790017E-03
 -1.64062763E-04  5.12615027E-05  1.80302556E-09  6.89153927E-03  6.90838550E-03
  6.90269511E-03  6.68616201E-06  1.50558584E-10 -3.94501726E-11 -1.77399534E-05
 -2.30761319E-05  9.22386898E-05 -4.33871431E-05 -1.06610051E-09  5.33802163E-04
 -1.66681679E-04 -6.35095689E-05  1.28158145E-09 -2.95774868E-05 -1.47022523E-05
 -4.48222051E-05  1.69282498E-05 -1.24064681E-10 -5.37490642E-11  1.64558881E-06
  4.88090972E-05 -1.03630834E-05 -1.18133126E-05  7.06981329E-11 -2.07561773E-04
 -2.57927761E-04 -1.02447576E-04  2.02757645E-09 -3.76321766E-05 -1.08158234E-05
 -1.45827844E-05 -1.93920171E-05  2.32767281E-10  2.18501579E-10 -2.61901017E-05
 -2.01446960E-04 -2.61901213E-05 -2.01447218E-04 -1.39667277E-05 -4.93632229E-05
  3.75643767E-05 -1.09125200E-04  3.75643937E-05 -1.09124828E-04  3.79662939E-06
 -1.38778733E-05  5.87906260E-05 -2.41179195E-05 -6.74247558E-10  4.13533073E-04
 -5.10524181E-04  2.18933968E-04  5.90339681E-09  1.94559159E-03 -1.17899634E-03
  4.88227621E-04  1.36810148E-08 -3.87829173E-05 -1.37896567E-04 -1.04349392E-04
 -9.35536965E-06 -7.86627079E-10 -4.07716490E-11  9.95746804E-01  2.77973782E-02
  5.74307424E-05 -1.16204713E-04 -1.09501980E-09 -1.47997046E-02  4.06919033E-04
  5.31577444E-04 -1.11351787E-09 -1.73645247E-03 -1.60504035E-03 -1.52330005E-03
  8.87974567E-05  2.72809007E-09 -1.19224683E-09  1.62365788E-02  5.18349014E-04
  3.05123814E-05  1.83842980E-06 -2.09590251E-10  3.65025330E-03  1.25930068E-03
  1.09532853E-03 -9.20848214E-09 -3.67609003E-04 -3.34754048E-04 -1.50909135E-04
 -2.32891994E-04  1.59355694E-09  1.54065141E-09  1.57666387E-04  2.40277200E-03
  1.57666663E-04  2.40277252E-03 -1.42132895E-04 -3.00600012E-05 -1.33054962E-04
 -3.11012749E-05 -1.33054992E-04 -3.11001646E-05 -6.17098515E-07 -3.20397921E-05
 -1.42406286E-05  1.54213065E-06  1.57785217E-10 -4.54931756E-05  1.32828158E-04
 -9.70543273E-06 -1.44650375E-09  2.23890157E-04 -1.65631385E-04  6.85621478E-05
  2.31551467E-09 -5.97423049E-05 -3.40093651E-05 -1.16176288E-04  2.98064847E-05
 -6.43541560E-10  3.16719478E-11 -1.65395922E-02 -3.77814923E-04 -1.45713383E-05
 -1.48774582E-05  1.84363653E-10  3.81518890E-03 -1.46721544E-03 -1.13475346E-03
  9.87176695E-09 -3.12606731E-04 -2.41902622E-04 -9.32279017E-05 -1.89785535E-04
  1.80110658E-09  1.23394035E-09  9.95620734E-01  2.83088321E-02 -5.60300830E-05
 -1.97822394E-05  6.22269138E-10 -1.50261611E-02 -5.49574973E-04 -3.96074243E-04
  4.08376230E-09 -1.83214383E-03 -1.82791383E-03 -1.80733872E-03 -2.52975466E-05
  2.09895818E-10  1.23036364E-10 -1.34162090E-04 -3.23886696E-05 -1.34162193E-04
 -3.23891133E-05  1.09435498E-04  2.51664845E-03  1.36762754E-04  2.55144174E-03
  1.36762562E-04  2.55144183E-03 -2.81808567E-01  1.03029620E+00 -3.74338348E-03
  1.90454748E-03  4.54831570E-08  2.36272066E-02 -1.22026952E-03  4.82478739E-04
  1.40670281E-08 -5.83066778E-03  7.87927072E-04 -2.34647514E-04 -8.74914101E-09
 -9.36919325E-04 -1.38369770E-03 -1.47705043E-03 -3.10291244E-04 -7.42339039E-09
  3.52789127E-09 -2.72660121E-05  8.12732846E-04 -9.14810773E-05  4.66239958E-05
  1.03337116E-09 -2.20311391E-03  3.26470317E-04  5.83621558E-04 -5.31920740E-10
 -3.91216498E-04 -6.71360688E-05  1.90194864E-04  2.30484032E-04  7.63326560E-09
 -3.35010531E-09 -3.73672140E-05 -2.81455591E-04 -7.17677951E-05  5.88919538E-05
  8.06753414E-10  1.32229020E-03  1.30733895E-03  1.56158108E-04 -1.15571522E-08
  6.05115618E-05 -5.20988617E-05 -2.89767478E-05  6.84096267E-05 -1.02745180E-09
 -6.29410320E-10 -2.90233031E-06  6.55487411E-04 -2.90219730E-06  6.55488347E-04
  6.85387598E-05  3.06589870E-04 -1.88024182E-04  2.00210259E-04 -1.88023722E-04
  2.00208874E-04 -1.39891288E-03  5.30089144E-03  8.90126165E-01 -4.40033185E-01
 -1.06256352E-05 -3.38063368E-03  2.13239626E-02 -1.03911652E-02 -2.54024022E-07
 -5.55203937E-04 -4.69516480E-03  2.16243413E-03  5.57837600E-08 -7.77642470E-05
  9.76494854E-04  1.24371769E-03  7.40754628E-04  1.80108051E-08 -8.57126273E-09
 -2.98204673E-05 -1.50911200E-03  3.61092837E-04 -1.61653865E-04 -4.09789606E-09
  4.70796944E-03  8.50181936E-04 -1.33640093E-03 -1.54159560E-08  7.41556681E-04
  6.59210823E-05 -3.52488437E-04 -4.97406470E-04 -1.44556686E-08  6.67784620E-09
  4.90326163E-05  3.96042339E-04 -1.11905066E-04 -6.65682999E-05  5.58759019E-10
 -2.19837183E-03 -1.49426630E-03 -1.92946648E-04  1.60707889E-08 -1.90091469E-04
  8.93253742E-05 -8.08969214E-06 -8.20970050E-05  2.08269855E-09  1.07013574E-09
 -1.96273908E-04 -9.43842562E-04 -1.96274506E-04 -9.43844251E-04 -7.29452855E-05
 -1.84167526E-05  1.78939286E-04 -1.16412979E-04  1.78939312E-04 -1.16416045E-04
  3.94887588E-06 -3.74714044E-05  4.40343878E-01  8.90857163E-01 -1.32788013E-07
 -9.80637920E-05  9.34356726E-03  1.86093951E-02 -4.15987054E-09  6.01770913E-05
 -2.27159651E-03 -4.42820756E-03  1.34880649E-09 -3.23539542E-04  2.60904657E-04
 -4.29153859E-05 -2.23250046E-04  2.11968410E-09  3.75981379E-09 -1.07956690E-05
 -7.75301764E-05 -4.85619261E-05  7.18156225E-05  8.33093826E-10  2.55440062E-04
 -2.03981459E-04 -1.02600806E-03 -2.27089010E-09 -1.59594125E-04  2.42346958E-04
 -1.04153081E-04 -9.70500148E-05  1.97644082E-11  2.52304850E-09  8.27311394E-06
  1.31259693E-04 -1.99110790E-05  3.62549032E-05  5.07193805E-10 -3.29618848E-04
 -9.77856103E-04 -3.52891413E-04  6.97726231E-09 -1.55810745E-04  2.84316083E-05
 -2.40789764E-05  3.90921461E-07  1.64605122E-09  3.12865168E-10 -6.55575775E-06
  6.57808269E-04 -6.55555204E-06  6.57805967E-04 -2.94777457E-05 -2.76989594E-04
  1.50834161E-04 -6.26294622E-04  1.50834013E-04 -6.26290733E-04  1.65252612E-10
 -6.19006180E-10  9.59218216E-06 -4.59321072E-06  9.93759578E-01  3.75088253E-10
  2.00008329E-07 -9.58255550E-08  2.07444760E-02  2.33940038E-10 -4.66492203E-08
  2.25331968E-08 -4.83416353E-03 -6.34139941E-09 -1.53735624E-09  7.58516320E-09
  3.35409859E-09 -3.71092305E-04  1.76167949E-04 -2.37029442E-11 -1.48909694E-10
  9.01499283E-10 -3.74558847E-10  7.99531940E-05  8.14706155E-10 -8.92723462E-09
  4.75326222E-09 -8.47973550E-04 -3.51508468E-09 -7.40524238E-10  4.21442834E-09
  1.40812131E-09 -2.13948624E-04  5.10356968E-05 -2.73376675E-11 -2.25066911E-10
 -1.93830981E-10  2.78687336E-10  1.51349817E-05  5.66129271E-10  3.42243033E-09
 -2.56867093E-09  4.89839139E-05  1.45590961E-09 -4.87973415E-11 -1.32590424E-09
 -3.33179013E-10  8.76749699E-05 -1.23524194E-05  1.40503070E-05  9.61660680E-04
 -1.40506046E-05 -9.61662966E-04  1.59222047E-10  2.46799762E-09  1.19584139E-04
 -4.30875025E-04 -1.19584842E-04  4.30873557E-04  2.03826982E-02 -9.60149539E-02
  2.97308277E-02 -1.17799119E-02 -3.41330531E-07  1.71661110E-01 -6.63555112E-02
  2.60787576E-02  7.61222469E-07  6.40739242E-02  1.27665245E-03 -1.10624272E-03
 -1.88192901E-08  1.95607901E-02 -7.24044674E-04 -5.51607632E-03 -1.23012366E-02
 -3.36443214E-07  1.44117945E-07 -1.43252558E-01  2.67456714E-01 -3.96400077E-02
 -3.57926916E-02  2.46817452E-07  2.39066975E-01 -4.77575024E-03 -4.70592668E-03
  2.70917107E-08  8.54100641E-03  7.34484183E-03  4.20839117E-03  4.38149188E-03
 -3.58337613E-08 -2.89762527E-08 -1.35798083E-01  2.52212579E-01  4.59845260E-02
  3.74353566E-02 -3.20686449E-07  2.19483763E-01  3.33750317E-03  5.55745028E-03
 -1.80808045E-08  8.64355497E-03  7.18155787E-03  3.76188299E-03  4.92667290E-03
 -3.77167721E-08 -3.45293576E-08  8.37041839E-02  1.69882818E-02  8.37041935E-02
  1.69882828E-02  7.74986661E-02  1.55101131E-02  7.87419738E-02  1.71217205E-02
  7.87419722E-02  1.71217233E-02  4.30544941E-02 -2.04089759E-01  2.80770651E-02
 -1.90774612E-02 -3.51713392E-07  3.77371863E-01 -6.41421163E-02  4.34734431E-02
  8.01911643E-07  1.92225361E-01  6.10939719E-04  2.55859025E-03  5.62218319E-09
  1.82722800E-02  1.43254063E-03 -5.91587927E-03 -1.64988181E-02 -3.41980279E-07
  1.97460756E-07 -7.52868467E-02  1.39804540E-01  1.27286334E-01  4.81131441E-02
 -1.10990543E-06  1.70641404E-01  3.96159747E-02  1.15383255E-02 -3.65458012E-07
  2.39074939E-03  7.01595595E-05  6.73437543E-03 -1.52256931E-02 -8.58706131E-09
  1.23218296E-07  1.28668626E-01 -2.39919384E-01  6.60125870E-02  4.36317112E-02
 -5.03454459E-07 -2.68276894E-01  2.32349326E-02  1.28092021E-02 -1.76197679E-07
 -7.14184590E-04 -4.27349089E-03 -1.01185137E-02  8.91397523E-03 -7.79270504E-08
 -5.97938334E-08  6.24560216E-02  2.05380241E-02  6.24560373E-02  2.05380201E-02
 -1.10923637E-01 -3.82938034E-02 -1.03876085E-01 -3.69809582E-02 -1.03876119E-01
 -3.69809844E-02  5.10922976E-02 -2.43943777E-01 -7.20196574E-03  1.08353164E-02
  1.12933615E-07  4.60033164E-01  1.68693870E-02 -2.53606907E-02 -2.65171301E-07
  3.06288784E-01  5.79533649E-03 -8.02374619E-03 -8.75284973E-08  2.99299103E-03
 -7.90498282E-04  7.86990135E-04  2.45757223E-03 -1.68120745E-08 -3.05553274E-08
  9.85642088E-02 -1.86725813E-01  1.09247080E-01 -1.48814444E-01 -1.63880666E-06
 -2.30579678E-01  4.28841445E-02 -6.00251757E-02 -6.56211262E-07  1.35763448E-02
 -3.62176823E-03 -1.68323317E-02 -3.30806352E-03 -3.59965136E-07  8.62809450E-08
 -4.41217224E-02  8.17848168E-02 -5.85639304E-02 -1.23303561E-01  1.18272178E-07
  1.10404764E-01 -2.20881545E-02 -4.40844387E-02  6.58782830E-08 -2.52439754E-03
 -2.40691257E-03  1.00768563E-02 -1.01059889E-02  9.53804676E-08  6.08267398E-08
 -1.30023714E-01 -6.73461423E-02 -1.30023684E-01 -6.73461350E-02  3.28774468E-02
  1.57379390E-02  7.34140733E-02  3.76812115E-02  7.34139677E-02  3.76811305E-02
  5.35457051E-09 -2.47867330E-08 -3.17587784E-07  1.11596636E-07 -3.08469193E-02
  5.04029399E-08  7.63036582E-07 -2.69251556E-07  7.44011718E-02  3.03000507E-08
  3.29169008E-07 -1.08888429E-07  3.11307502E-02 -2.00304529E-07 -3.12097646E-08
  2.37058858E-07  9.50664821E-08 -1.15544109E-02  5.17427804E-03 -4.85155990E-09
  1.25815142E-08  3.11465387E-06 -1.13241430E-06  3.12957878E-01 -8.85024004E-10
  1.47147796E-06 -5.40605712E-07  1.46027976E-01 -1.34945731E-07 -1.17676779E-07
  2.53744177E-07  2.19455830E-07 -7.87747494E-03  1.92657576E-02  3.43125009E-10
 -1.79818345E-09  2.98198473E-06 -1.14025772E-06  2.97618645E-01  4.56697222E-09
  1.47098939E-06 -5.43112116E-07  1.47738800E-01  5.64290477E-08  5.99940992E-08
 -1.17186257E-07 -1.42777144E-07  6.06374826E-03 -1.81459723E-02  1.55291958E-01
  1.19185638E-01 -1.55291965E-01 -1.19185618E-01 -3.97459042E-07 -3.20581533E-07
 -1.49813172E-01 -1.11117761E-01  1.49813570E-01  1.11118087E-01 -1.49331858E-02
  7.30550563E-02  5.06078008E-02  5.83093337E-03 -4.73920920E-07 -1.37216649E-01
 -1.23634769E-01 -1.50598962E-02  1.15707678E-06 -1.46458780E-01 -3.40873963E-02
 -1.64194103E-02  2.55184798E-07  1.82146700E-02 -6.34388360E-03 -5.73766453E-03
 -3.03243033E-03 -2.87014585E-07  2.83117400E-08 -2.65970694E-02  5.10258672E-02
 -4.20535396E-03 -1.81744717E-01 -6.83719015E-07  8.70021142E-02  9.77966354E-03
 -9.02096309E-02 -4.74918592E-07 -4.52024448E-04  7.41811671E-03 -7.41292113E-03
  5.57045124E-03 -6.24757379E-08  6.88455874E-09 -1.25054757E-07  3.63796648E-03
  3.50727585E-01 -1.82252191E-01 -4.14520240E-06 -3.86635042E-03  1.74623138E-01
 -9.74998590E-02 -2.09801358E-06 -1.99653122E-02  2.16787390E-03  1.50625377E-02
  2.30018037E-02  3.85896847E-07 -1.71302068E-07 -4.25010175E-02 -3.61510097E-02
 -4.25009420E-02 -3.61509924E-02 -2.61136193E-01 -2.19647668E-01  7.98066335E-02
  6.41788649E-02  7.98058409E-02  6.41782228E-02  5.54571153E-03 -2.66294612E-02
 -1.24120045E-03  4.17632731E-02  1.40027167E-07  5.36181185E-02  2.82880442E-03
 -1.02130261E-01 -3.39997021E-07  5.03553007E-02 -3.22366467E-03 -4.50086577E-02
 -9.95643921E-08  5.13167597E-03 -9.43710412E-03  1.85612956E-03  1.18137921E-02
 -1.31104473E-09 -1.64773102E-07 -8.05790766E-03  2.25756040E-02 -2.12160775E-01
 -2.97597910E-01  1.15863370E-06  5.12488427E-03 -1.04179231E-01 -1.56419795E-01
  5.47504905E-07  1.56751963E-02 -2.60994905E-03 -1.87355648E-02  1.45365489E-02
 -3.36461522E-07 -6.75364457E-08 -1.45273831E-02  3.37735374E-02  1.45860565E-01
  3.60160229E-01 -2.11637162E-07  3.81301836E-02  7.25774672E-02  1.95137770E-01
 -3.84359011E-08  2.06847669E-02 -2.82613588E-03 -2.35176287E-02  1.00979454E-02
 -4.16500207E-07 -5.71753795E-08 -1.01571963E-01 -9.69199133E-02 -1.01572091E-01
 -9.69200100E-02  4.62344058E-02  4.00531116E-02 -1.28747841E-01 -1.21863296E-01
 -1.28747549E-01 -1.21863054E-01  1.19676277E-09 -3.88632789E-09  3.81482723E-07
 -1.50156187E-07  3.73530894E-02  1.54783936E-08 -9.38433363E-07  3.69271456E-07
 -9.19951689E-02 -3.95187462E-08 -4.00774595E-07  1.68787074E-07 -4.19414590E-02
  1.76320493E-07  4.84133564E-08 -2.20407306E-07 -1.19930484E-07  9.85481435E-03
 -7.89661642E-03 -2.24363255E-10 -2.35378850E-09 -2.92566966E-06  9.35663213E-07
 -2.90858449E-01  1.08011184E-08 -1.73552199E-06  5.41314848E-07 -1.74399973E-01
 -3.26063920E-08  1.88515037E-07 -1.57953125E-07 -2.98499035E-07 -2.22694711E-03
 -3.18125011E-02 -3.88613432E-09  1.18898404E-08  3.11877721E-06 -9.92831037E-07
  3.14926733E-01 -1.62027036E-08  1.86351480E-06 -6.05388343E-07  1.87135506E-01
 -1.00526298E-07  1.47660838E-07 -4.93789321E-08 -2.58314672E-07 -3.45045592E-03
 -3.44004326E-02 -1.68645707E-01 -1.62548093E-01  1.68645630E-01  1.62548041E-01
 -3.87052868E-07 -3.45706081E-07 -1.86569260E-01 -1.78426014E-01  1.86569582E-01
  1.78426315E-01  1.52896040E-02 -7.90248196E-02 -1.63705310E-01  8.26375372E-02
  1.98800993E-06  1.39750137E-01  4.07043160E-01 -2.05744667E-01 -4.94261282E-06
  2.94300979E-01  1.54404950E-01 -8.27534354E-02 -1.92353711E-06 -4.81101977E-02
  5.40166092E-03  2.06756884E-02  3.89981238E-02  9.53607746E-07 -4.60969449E-07
  2.48944315E-02 -3.57915290E-02 -3.04177223E-01  1.71951209E-01  3.58914914E-06
 -1.64233511E-01 -2.33605517E-01  1.34567786E-01  2.77093904E-06 -2.28060578E-02
  6.04307592E-03  1.21794293E-02  1.50285880E-02  4.54451134E-07 -1.75513609E-07
 -6.68218415E-03  1.62656191E-02  1.42638492E-01 -4.40266159E-02 -1.55115033E-06
  1.32475886E-02  9.42838546E-02 -3.44225905E-02 -1.06739463E-06 -1.77054709E-02
  9.40516965E-03  8.04318480E-03  1.14941325E-02  2.92103433E-07 -6.29673073E-08
  7.15894700E-02  8.27793442E-02  7.15894969E-02  8.27793738E-02 -1.14494591E-01
 -1.31980567E-01  3.79384860E-02  4.68908750E-02  3.79381598E-02  4.68905251E-02
 -5.51970291E-05  1.62472438E-05 -1.05218345E-01 -2.11229396E-01 -5.72262934E-07