
    -----------------------------------------------------------------------
          Psi4: An Open-Source Ab Initio Electronic Structure Package
                               Psi4 1.4a2.dev612 

                         Git: Rev {master} 58d3bc0 


    D. G. A. Smith, L. A. Burns, A. C. Simmonett, R. M. Parrish,
    M. C. Schieber, R. Galvelis, P. Kraus, H. Kruse, R. Di Remigio,
    A. Alenaizan, A. M. James, S. Lehtola, J. P. Misiewicz, M. Scheurer,
    R. A. Shaw, J. B. Schriber, Y. Xie, Z. L. Glick, D. A. Sirianni,
    J. S. O'Brien, J. M. Waldrop, A. Kumar, E. G. Hohenstein,
    B. P. Pritchard, B. R. Brooks, H. F. Schaefer III, A. Yu. Sokolov,
    K. Patkowski, A. E. DePrince III, U. Bozkaya, R. A. King,
    F. A. Evangelista, J. M. Turney, T. D. Crawford, C. D. Sherrill,
    J. Chem. Phys. 152(18) 184108 (2020). https://doi.org/10.1063/5.0006002

                            Additional Code Authors
    E. T. Seidl, C. L. Janssen, E. F. Valeev, M. L. Leininger,
    J. F. Gonthier, R. M. Richard, H. R. McAlexander, M. Saitow, X. Wang,
    P. Verma, and M. H. Lechner

             Previous Authors, Complete List of Code Contributors,
                       and Citations for Specific Modules
    https://github.com/psi4/psi4/blob/master/codemeta.json
    https://github.com/psi4/psi4/graphs/contributors
    http://psicode.org/psi4manual/master/introduction.html#citing-psifour

    -----------------------------------------------------------------------


    Psi4 started on: Sunday, 31 January 2021 04:35PM

    Process ID: 18561
    Host:       node59.bme.utexas.edu
    PSIDATADIR: /home/xy3866/.conda/envs/test-rdkit/share/psi4
    Memory:     500.0 MiB
    Threads:    8
    
  ==> Input File <==

--------------------------------------------------------------------------
#psi4
#
memory 32 gb

molecule  {
0 1
 Cl        1.4875760    -0.8585340    -1.4502940
 Cl        1.6673240     1.6297210    -0.0000070
 Cl        1.4875730    -0.8585200     1.4503030
  C       -0.5967930     0.0636340    -0.0000010
  C       -1.2815000    -1.1610580    -0.0000010
  C       -1.3211830     1.2579990    -0.0000020
  C        0.9157560     0.0178650    -0.0000010
  C       -2.6727010    -1.1855470     0.0000010
  C       -2.7178890     1.2245560     0.0000000
  C       -3.3986470     0.0087400    -0.0000010
  H       -0.7254190    -2.0945270     0.0000000
  H       -0.8108600     2.2139340    -0.0000010
  H       -3.1911200    -2.1409440     0.0000000
  H       -3.2714520     2.1600600    -0.0000020
  H       -4.4854430    -0.0109760     0.0000010
units angstrom
no_reorient  #important for SAPT in psi4, default
symmetry c1  #important for SAPT in psi4, default
}

set PROPERTIES_ORIGIN ["COM"]
properties('MP2/aug-cc-pvtz', properties = ['dipole'])
--------------------------------------------------------------------------

  Memory set to  29.802 GiB by Python driver.
    SCF Algorithm Type (re)set to DF.

*** tstart() called on node59.bme.utexas.edu
*** at Sun Jan 31 16:35:22 2021

   => Loading Basis Set <=

    Name: AUG-CC-PVTZ
    Role: ORBITAL
    Keyword: BASIS
    atoms 1-3   entry CL         line   988 file /home/xy3866/.conda/envs/test-rdkit/share/psi4/basis/aug-cc-pvtz.gbs 
    atoms 4-10  entry C          line   239 file /home/xy3866/.conda/envs/test-rdkit/share/psi4/basis/aug-cc-pvtz.gbs 
    atoms 11-15 entry H          line    40 file /home/xy3866/.conda/envs/test-rdkit/share/psi4/basis/aug-cc-pvtz.gbs 


         ---------------------------------------------------------
                                   SCF
               by Justin Turney, Rob Parrish, Andy Simmonett
                          and Daniel G. A. Smith
                              RHF Reference
                        8 Threads,  30517 MiB Core
         ---------------------------------------------------------

  ==> Geometry <==

    Molecular point group: c1
    Full point group: C1

    Geometry (in Angstrom), charge = 0, multiplicity = 1:

       Center              X                  Y                   Z               Mass       
    ------------   -----------------  -----------------  -----------------  -----------------
         CL           1.400518190127    -0.857445438768    -1.450294040847    34.968852682000
         CL           1.580266190127     1.630809561232    -0.000007040847    34.968852682000
         CL           1.400515190127    -0.857431438768     1.450302959153    34.968852682000
         C           -0.683850809873     0.064722561232    -0.000001040847    12.000000000000
         C           -1.368557809873    -1.159969438768    -0.000001040847    12.000000000000
         C           -1.408240809873     1.259087561232    -0.000002040847    12.000000000000
         C            0.828698190127     0.018953561232    -0.000001040847    12.000000000000
         C           -2.759758809873    -1.184458438768     0.000000959153    12.000000000000
         C           -2.804946809873     1.225644561232    -0.000000040847    12.000000000000
         C           -3.485704809873     0.009828561232    -0.000001040847    12.000000000000
         H           -0.812476809873    -2.093438438768    -0.000000040847     1.007825032230
         H           -0.897917809873     2.215022561232    -0.000001040847     1.007825032230
         H           -3.278177809873    -2.139855438768    -0.000000040847     1.007825032230
         H           -3.358509809873     2.161148561232    -0.000002040847     1.007825032230
         H           -4.572500809873    -0.009887438768     0.000000959153     1.007825032230

  Running in c1 symmetry.

  Rotational constants: A =      0.04433  B =      0.02086  C =      0.01885 [cm^-1]
  Rotational constants: A =   1328.91689  B =    625.39685  C =    565.18832 [MHz]
  Nuclear repulsion =  773.706519124587999

  Charge       = 0
  Multiplicity = 1
  Electrons    = 98
  Nalpha       = 49
  Nbeta        = 49

  ==> Algorithm <==

  SCF Algorithm Type is DF.
  DIIS enabled.
  MOM disabled.
  Fractional occupation disabled.
  Guess Type is SAD.
  Energy threshold   = 1.00e-10
  Density threshold  = 1.00e-10
  Integral threshold = 0.00e+00

  ==> Primary Basis <==

  Basis Set: AUG-CC-PVTZ
    Blend: AUG-CC-PVTZ
    Number of shells: 191
    Number of basis function: 587
    Number of Cartesian functions: 687
    Spherical Harmonics?: true
    Max angular momentum: 3

   => Loading Basis Set <=

    Name: (AUG-CC-PVTZ AUX)
    Role: JKFIT
    Keyword: DF_BASIS_SCF
    atoms 1-3   entry CL         line   816 file /home/xy3866/.conda/envs/test-rdkit/share/psi4/basis/aug-cc-pvtz-jkfit.gbs 
    atoms 4-10  entry C          line   162 file /home/xy3866/.conda/envs/test-rdkit/share/psi4/basis/aug-cc-pvtz-jkfit.gbs 
    atoms 11-15 entry H          line    70 file /home/xy3866/.conda/envs/test-rdkit/share/psi4/basis/aug-cc-pvtz-jkfit.gbs 

  ==> Integral Setup <==

  DFHelper Memory: AOs need 3.565 GiB; user supplied 22.352 GiB. Using in-core AOs.

  ==> MemDFJK: Density-Fitted J/K Matrices <==

    J tasked:                   Yes
    K tasked:                   Yes
    wK tasked:                   No
    OpenMP threads:               8
    Memory [MiB]:             22888
    Algorithm:                 Core
    Schwarz Cutoff:           1E-12
    Mask sparsity (%):       3.4431
    Fitting Condition:        1E-10

   => Auxiliary Basis Set <=

  Basis Set: (AUG-CC-PVTZ AUX)
    Blend: AUG-CC-PVTZ-JKFIT
    Number of shells: 406
    Number of basis function: 1396
    Number of Cartesian functions: 1732
    Spherical Harmonics?: true
    Max angular momentum: 4

  Minimum eigenvalue in the overlap matrix is 5.6384207963E-07.
  Reciprocal condition number of the overlap matrix is 3.1808686824E-08.
    Using symmetric orthogonalization.

  ==> Pre-Iterations <==

  SCF Guess: Superposition of Atomic Densities via on-the-fly atomic UHF (no occupation information).

   -------------------------
    Irrep   Nso     Nmo    
   -------------------------
     A        587     587 
   -------------------------
    Total     587     587
   -------------------------

  ==> Iterations <==

                           Total Energy        Delta E     RMS |[F,P]|

   @DF-RHF iter SAD: -1646.49907295021785   -1.64650e+03   0.00000e+00 
   @DF-RHF iter   1: -1646.36229954098076    1.36773e-01   1.09676e-03 DIIS
   @DF-RHF iter   2: -1646.53324200475618   -1.70942e-01   6.64899e-04 DIIS
   @DF-RHF iter   3: -1646.60384046535160   -7.05985e-02   1.38813e-04 DIIS
   @DF-RHF iter   4: -1646.60797721488257   -4.13675e-03   7.13130e-05 DIIS
   @DF-RHF iter   5: -1646.60900926110958   -1.03205e-03   1.24278e-05 DIIS
   @DF-RHF iter   6: -1646.60907105804176   -6.17969e-05   5.19223e-06 DIIS
   @DF-RHF iter   7: -1646.60908148456838   -1.04265e-05   2.10508e-06 DIIS
   @DF-RHF iter   8: -1646.60908367797583   -2.19341e-06   8.08329e-07 DIIS
   @DF-RHF iter   9: -1646.60908426975402   -5.91778e-07   3.69210e-07 DIIS
   @DF-RHF iter  10: -1646.60908441243896   -1.42685e-07   1.49780e-07 DIIS
   @DF-RHF iter  11: -1646.60908443420658   -2.17676e-08   4.69447e-08 DIIS
   @DF-RHF iter  12: -1646.60908443571611   -1.50953e-09   1.39226e-08 DIIS
   @DF-RHF iter  13: -1646.60908443579251   -7.63976e-11   4.20682e-09 DIIS
   @DF-RHF iter  14: -1646.60908443579387   -1.36424e-12   1.66565e-09 DIIS
   @DF-RHF iter  15: -1646.60908443580229   -8.41283e-12   5.88582e-10 DIIS
   @DF-RHF iter  16: -1646.60908443580706   -4.77485e-12   2.21394e-10 DIIS
   @DF-RHF iter  17: -1646.60908443580297    4.09273e-12   1.12883e-10 DIIS
   @DF-RHF iter  18: -1646.60908443580115    1.81899e-12   4.95142e-11 DIIS
  Energy and wave function converged.


  ==> Post-Iterations <==

    Orbital Energies [Eh]
    ---------------------

    Doubly Occupied:                                                      

       1A   -104.861007     2A   -104.856926     3A   -104.856925  
       4A    -11.442377     5A    -11.275742     6A    -11.257679  
       7A    -11.257103     8A    -11.254837     9A    -11.252350  
      10A    -11.251779    11A    -10.585542    12A    -10.581440  
      13A    -10.581432    14A     -8.052276    15A     -8.050212  
      16A     -8.050206    17A     -8.048147    18A     -8.048146  
      19A     -8.046067    20A     -8.046067    21A     -8.046022  
      22A     -8.046022    23A     -1.248985    24A     -1.165060  
      25A     -1.109670    26A     -1.104843    27A     -1.043296  
      28A     -1.032375    29A     -0.892682    30A     -0.845978  
      31A     -0.794754    32A     -0.720661    33A     -0.661920  
      34A     -0.659440    35A     -0.628102    36A     -0.624207  
      37A     -0.606416    38A     -0.597261    39A     -0.531303  
      40A     -0.527744    41A     -0.513864    42A     -0.494939  
      43A     -0.494640    44A     -0.467633    45A     -0.456322  
      46A     -0.454562    47A     -0.443686    48A     -0.355134  
      49A     -0.349564  

    Virtual:                                                              

      50A      0.026262    51A      0.032601    52A      0.039214  
      53A      0.050890    54A      0.054889    55A      0.070694  
      56A      0.075361    57A      0.081161    58A      0.086286  
      59A      0.092199    60A      0.095858    61A      0.097640  
      62A      0.099561    63A      0.105373    64A      0.111992  
      65A      0.113817    66A      0.123348    67A      0.127295  
      68A      0.129835    69A      0.129878    70A      0.139542  
      71A      0.140325    72A      0.147260    73A      0.149489  
      74A      0.150641    75A      0.154142    76A      0.159064  
      77A      0.165019    78A      0.169436    79A      0.171245  
      80A      0.183515    81A      0.187996    82A      0.192004  
      83A      0.198621    84A      0.200116    85A      0.208768  
      86A      0.210133    87A      0.212719    88A      0.220342  
      89A      0.222831    90A      0.229337    91A      0.244456  
      92A      0.252968    93A      0.254676    94A      0.262311  
      95A      0.266103    96A      0.274996    97A      0.283402  
      98A      0.289232    99A      0.290975   100A      0.298085  
     101A      0.303044   102A      0.308274   103A      0.314392  
     104A      0.318828   105A      0.323238   106A      0.328508  
     107A      0.337178   108A      0.338860   109A      0.342692  
     110A      0.350825   111A      0.363687   112A      0.368706  
     113A      0.371543   114A      0.388206   115A      0.389431  
     116A      0.396626   117A      0.400009   118A      0.401746  
     119A      0.414756   120A      0.416963   121A      0.418529  
     122A      0.420252   123A      0.425714   124A      0.425774  
     125A      0.433286   126A      0.446027   127A      0.449780  
     128A      0.452453   129A      0.460905   130A      0.471090  
     131A      0.476304   132A      0.476485   133A      0.482952  
     134A      0.487139   135A      0.489475   136A      0.491447  
     137A      0.498546   138A      0.501619   139A      0.502132  
     140A      0.512263   141A      0.520361   142A      0.521991  
     143A      0.522831   144A      0.533808   145A      0.537262  
     146A      0.539585   147A      0.543125   148A      0.544951  
     149A      0.550620   150A      0.555987   151A      0.560428  
     152A      0.571905   153A      0.592539   154A      0.598897  
     155A      0.610484   156A      0.614425   157A      0.625414  
     158A      0.633518   159A      0.647368   160A      0.648234  
     161A      0.652725   162A      0.660045   163A      0.664380  
     164A      0.675959   165A      0.685214   166A      0.690968  
     167A      0.692032   168A      0.695714   169A      0.707863  
     170A      0.718646   171A      0.721640   172A      0.731159  
     173A      0.733075   174A      0.737730   175A      0.742758  
     176A      0.757494   177A      0.782495   178A      0.791855  
     179A      0.798308   180A      0.805819   181A      0.813562  
     182A      0.825644   183A      0.830286   184A      0.833640  
     185A      0.838988   186A      0.847678   187A      0.847768  
     188A      0.855410   189A      0.856953   190A      0.861136  
     191A      0.866747   192A      0.874899   193A      0.876458  
     194A      0.881594   195A      0.889260   196A      0.893982  
     197A      0.897184   198A      0.899139   199A      0.905706  
     200A      0.908710   201A      0.921248   202A      0.928389  
     203A      0.937475   204A      0.943546   205A      0.948295  
     206A      0.953480   207A      0.956150   208A      0.962592  
     209A      0.968544   210A      0.979173   211A      0.979377  
     212A      0.988509   213A      0.996187   214A      0.999629  
     215A      1.001088   216A      1.016629   217A      1.019854  
     218A      1.031637   219A      1.038262   220A      1.039770  
     221A      1.052447   222A      1.055076   223A      1.060033  
     224A      1.060892   225A      1.072685   226A      1.073304  
     227A      1.081121   228A      1.081719   229A      1.097735  
     230A      1.097927   231A      1.100666   232A      1.106648  
     233A      1.116265   234A      1.128277   235A      1.130730  
     236A      1.138462   237A      1.145368   238A      1.148615  
     239A      1.160172   240A      1.169736   241A      1.172538  
     242A      1.175894   243A      1.181422   244A      1.197946  
     245A      1.202865   246A      1.206472   247A      1.222274  
     248A      1.224602   249A      1.227079   250A      1.235093  
     251A      1.244945   252A      1.258509   253A      1.262714  
     254A      1.264659   255A      1.273115   256A      1.288843  
     257A      1.299969   258A      1.308526   259A      1.323798  
     260A      1.331831   261A      1.339000   262A      1.346092  
     263A      1.349875   264A      1.365931   265A      1.377687  
     266A      1.384452   267A      1.390383   268A      1.397821  
     269A      1.404335   270A      1.405727   271A      1.419465  
     272A      1.432567   273A      1.463143   274A      1.464303  
     275A      1.468116   276A      1.472964   277A      1.478170  
     278A      1.479354   279A      1.495399   280A      1.505326  
     281A      1.516356   282A      1.535124   283A      1.554972  
     284A      1.569624   285A      1.572776   286A      1.582637  
     287A      1.591813   288A      1.597632   289A      1.597788  
     290A      1.614679   291A      1.637560   292A      1.644820  
     293A      1.660334   294A      1.684580   295A      1.685507  
     296A      1.706740   297A      1.706831   298A      1.713431  
     299A      1.720736   300A      1.723975   301A      1.732673  
     302A      1.738406   303A      1.741812   304A      1.745196  
     305A      1.777302   306A      1.780264   307A      1.794364  
     308A      1.796083   309A      1.802165   310A      1.809701  
     311A      1.821676   312A      1.834875   313A      1.837884  
     314A      1.847425   315A      1.848878   316A      1.859088  
     317A      1.867830   318A      1.870724   319A      1.888541  
     320A      1.895151   321A      1.914527   322A      1.921217  
     323A      1.925779   324A      1.939489   325A      1.940560  
     326A      1.942201   327A      1.964155   328A      1.975156  
     329A      2.000892   330A      2.007479   331A      2.017348  
     332A      2.021494   333A      2.026758   334A      2.044324  
     335A      2.058901   336A      2.064463   337A      2.070563  
     338A      2.087835   339A      2.091074   340A      2.093961  
     341A      2.108205   342A      2.109554   343A      2.123841  
     344A      2.144315   345A      2.154247   346A      2.159795  
     347A      2.167114   348A      2.171907   349A      2.213323  
     350A      2.226993   351A      2.243071   352A      2.255284  
     353A      2.284639   354A      2.287188   355A      2.301177  
     356A      2.322349   357A      2.330027   358A      2.365723  
     359A      2.390035   360A      2.399494   361A      2.412935  
     362A      2.416934   363A      2.435273   364A      2.437277  
     365A      2.452683   366A      2.511314   367A      2.530181  
     368A      2.542540   369A      2.583943   370A      2.606588  
     371A      2.639919   372A      2.647327   373A      2.653177  
     374A      2.682883   375A      2.690109   376A      2.698022  
     377A      2.710764   378A      2.719965   379A      2.743236  
     380A      2.747614   381A      2.748089   382A      2.755260  
     383A      2.763617   384A      2.778880   385A      2.793112  
     386A      2.809590   387A      2.812660   388A      2.835084  
     389A      2.845870   390A      2.878619   391A      2.898855  
     392A      2.917390   393A      2.924030   394A      2.979332  
     395A      2.990111   396A      3.033151   397A      3.038526  
     398A      3.048702   399A      3.063557   400A      3.066142  
     401A      3.082495   402A      3.125308   403A      3.137485  
     404A      3.147221   405A      3.159573   406A      3.166240  
     407A      3.177304   408A      3.180745   409A      3.194381  
     410A      3.195211   411A      3.207314   412A      3.224396  
     413A      3.229877   414A      3.232023   415A      3.243344  
     416A      3.244436   417A      3.274221   418A      3.279630  
     419A      3.300152   420A      3.308824   421A      3.314842  
     422A      3.325939   423A      3.328871   424A      3.333370  
     425A      3.355814   426A      3.362349   427A      3.364766  
     428A      3.375472   429A      3.386334   430A      3.404907  
     431A      3.408433   432A      3.413526   433A      3.423615  
     434A      3.455865   435A      3.456561   436A      3.463559  
     437A      3.490152   438A      3.490874   439A      3.505227  
     440A      3.512681   441A      3.523401   442A      3.534808  
     443A      3.543396   444A      3.549443   445A      3.562803  
     446A      3.568894   447A      3.582829   448A      3.593465  
     449A      3.603761   450A      3.632771   451A      3.644522  
     452A      3.665927   453A      3.691939   454A      3.693627  
     455A      3.696136   456A      3.721951   457A      3.738661  
     458A      3.754750   459A      3.763641   460A      3.793732  
     461A      3.796187   462A      3.814540   463A      3.824661  
     464A      3.845349   465A      3.845833   466A      3.853389  
     467A      3.864641   468A      3.884762   469A      3.912965  
     470A      3.936351   471A      3.939099   472A      3.950543  
     473A      3.970371   474A      3.974026   475A      3.979287  
     476A      3.985921   477A      4.008467   478A      4.019276  
     479A      4.029845   480A      4.037079   481A      4.048494  
     482A      4.063945   483A      4.090100   484A      4.097039  
     485A      4.116804   486A      4.143299   487A      4.149650  
     488A      4.169398   489A      4.202337   490A      4.220169  
     491A      4.225715   492A      4.244149   493A      4.259734  
     494A      4.279844   495A      4.285646   496A      4.298609  
     497A      4.302177   498A      4.315368   499A      4.348948  
     500A      4.371615   501A      4.389843   502A      4.394150  
     503A      4.405588   504A      4.419621   505A      4.426873  
     506A      4.430459   507A      4.446034   508A      4.465345  
     509A      4.474305   510A      4.481554   511A      4.516202  
     512A      4.521948   513A      4.544648   514A      4.588344  
     515A      4.622232   516A      4.662881   517A      4.683486  
     518A      4.689107   519A      4.710547   520A      4.718233  
     521A      4.726934   522A      4.733790   523A      4.770671  
     524A      4.777672   525A      4.785534   526A      4.800570  
     527A      4.863487   528A      4.884815   529A      4.909524  
     530A      4.929676   531A      4.945919   532A      4.988306  
     533A      5.005935   534A      5.013920   535A      5.065803  
     536A      5.079056   537A      5.101425   538A      5.103737  
     539A      5.124285   540A      5.143738   541A      5.147870  
     542A      5.152524   543A      5.167336   544A      5.170191  
     545A      5.208745   546A      5.283897   547A      5.300019  
     548A      5.305350   549A      5.326144   550A      5.331381  
     551A      5.352108   552A      5.371649   553A      5.412925  
     554A      5.442212   555A      5.501840   556A      5.554830  
     557A      5.638575   558A      5.711432   559A      5.752914  
     560A      5.783264   561A      5.806584   562A      5.874995  
     563A      5.998820   564A      6.076785   565A      6.125435  
     566A      6.186411   567A      6.221666   568A      6.306416  
     569A      6.316442   570A      6.362038   571A      6.467789  
     572A      6.591518   573A      6.737903   574A      6.887345  
     575A      6.987444   576A      7.112238   577A      7.298692  
     578A      7.823333   579A      7.854205   580A      8.303737  
     581A     15.582413   582A     16.033591   583A     16.540024  
     584A     18.506059   585A     19.383714   586A     19.773357  
     587A     20.022070  

    Final Occupation by Irrep:
              A 
    DOCC [    49 ]

  @DF-RHF Final Energy: -1646.60908443580115

   => Energetics <=

    Nuclear Repulsion Energy =            773.7065191245879987
    One-Electron Energy =               -3807.4845144790579070
    Two-Electron Energy =                1387.1689109186688711
    Total Energy =                      -1646.6090844358011509

Computation Completed

*** tstop() called on node59.bme.utexas.edu at Sun Jan 31 16:36:00 2021
Module time:
	user time   =     228.33 seconds =       3.81 minutes
	system time =       7.53 seconds =       0.13 minutes
	total time  =         38 seconds =       0.63 minutes
Total time:
	user time   =     228.33 seconds =       3.81 minutes
	system time =       7.53 seconds =       0.13 minutes
	total time  =         38 seconds =       0.63 minutes
   => Loading Basis Set <=

    Name: (AUG-CC-PVTZ AUX)
    Role: RIFIT
    Keyword: DF_BASIS_MP2
    atoms 1-3   entry CL         line   742 file /home/xy3866/.conda/envs/test-rdkit/share/psi4/basis/aug-cc-pvtz-ri.gbs 
    atoms 4-10  entry C          line   148 file /home/xy3866/.conda/envs/test-rdkit/share/psi4/basis/aug-cc-pvtz-ri.gbs 
    atoms 11-15 entry H          line    30 file /home/xy3866/.conda/envs/test-rdkit/share/psi4/basis/aug-cc-pvtz-ri.gbs 


*** tstart() called on node59.bme.utexas.edu
*** at Sun Jan 31 16:36:00 2021


  //>>>>>>>>>>>>>>>>>>>>>>>>>>>>>>>>>>>//
  //               DFMP2               //
  //<<<<<<<<<<<<<<<<<<<<<<<<<<<<<<<<<<<//

	 --------------------------------------------------------
	                          DF-MP2                         
	      2nd-Order Density-Fitted Moller-Plesset Theory     
	              RMP2 Wavefunction,   8 Threads             
	                                                         
	        Rob Parrish, Justin Turney, Andy Simmonett,      
	           Ed Hohenstein, and C. David Sherrill          
	 --------------------------------------------------------

   => Auxiliary Basis Set <=

  Basis Set: (AUG-CC-PVTZ AUX)
    Blend: AUG-CC-PVTZ-RI
    Number of shells: 377
    Number of basis function: 1413
    Number of Cartesian functions: 1800
    Spherical Harmonics?: true
    Max angular momentum: 4

	 --------------------------------------------------------
	                 NBF =   587, NAUX =  1413
	 --------------------------------------------------------
	   CLASS    FOCC     OCC    AOCC    AVIR     VIR    FVIR
	   PAIRS       0      49      49     538     538       0
	 --------------------------------------------------------

  DFHelper Memory: AOs need 3.565 GiB; user supplied 22.352 GiB. Using in-core AOs.


         ------------------------------------------------------------
                                     CPHF                           
                                  Rob Parrish                       
         ------------------------------------------------------------

  ==> Geometry <==

    Molecular point group: c1
    Full point group: C1

    Geometry (in Angstrom), charge = 0, multiplicity = 1:

       Center              X                  Y                   Z               Mass       
    ------------   -----------------  -----------------  -----------------  -----------------
         CL           1.400518190127    -0.857445438768    -1.450294040847    34.968852682000
         CL           1.580266190127     1.630809561232    -0.000007040847    34.968852682000
         CL           1.400515190127    -0.857431438768     1.450302959153    34.968852682000
         C           -0.683850809873     0.064722561232    -0.000001040847    12.000000000000
         C           -1.368557809873    -1.159969438768    -0.000001040847    12.000000000000
         C           -1.408240809873     1.259087561232    -0.000002040847    12.000000000000
         C            0.828698190127     0.018953561232    -0.000001040847    12.000000000000
         C           -2.759758809873    -1.184458438768     0.000000959153    12.000000000000
         C           -2.804946809873     1.225644561232    -0.000000040847    12.000000000000
         C           -3.485704809873     0.009828561232    -0.000001040847    12.000000000000
         H           -0.812476809873    -2.093438438768    -0.000000040847     1.007825032230
         H           -0.897917809873     2.215022561232    -0.000001040847     1.007825032230
         H           -3.278177809873    -2.139855438768    -0.000000040847     1.007825032230
         H           -3.358509809873     2.161148561232    -0.000002040847     1.007825032230
         H           -4.572500809873    -0.009887438768     0.000000959153     1.007825032230

  Nuclear repulsion =  773.706519124587999
  Reference energy  = -1646.609084435801151

  ==> Basis Set <==

  Basis Set: AUG-CC-PVTZ
    Blend: AUG-CC-PVTZ
    Number of shells: 191
    Number of basis function: 587
    Number of Cartesian functions: 687
    Spherical Harmonics?: true
    Max angular momentum: 3

  ==> CGRSolver (by Rob Parrish) <==

   Number of roots    =         1
   Preconditioning    =    JACOBI
   Convergence cutoff =     1E-06
   Maximum iterations =       100

  ==> CPHFRHamiltonian (by Rob Parrish) <== 

  ==> MemDFJK: Density-Fitted J/K Matrices <==

    J tasked:                   Yes
    K tasked:                   Yes
    wK tasked:                   No
    OpenMP threads:               8
    Memory [MiB]:             22888
    Algorithm:                 Core
    Schwarz Cutoff:           1E-12
    Mask sparsity (%):       3.4431
    Fitting Condition:        1E-10

   => Auxiliary Basis Set <=

  Basis Set: (AUG-CC-PVTZ AUX)
    Blend: AUG-CC-PVTZ-JKFIT
    Number of shells: 406
    Number of basis function: 1396
    Number of Cartesian functions: 1732
    Spherical Harmonics?: true
    Max angular momentum: 4

  ==> CPHF Iterations <==

  => Iterations <=

             Iter  Converged  Remaining    Residual
  CGR           1          0          1   1.113E-01
  CGR           2          0          1   2.821E-02
  CGR           3          0          1   1.037E-02
  CGR           4          0          1   4.870E-03
  CGR           5          0          1   2.124E-03
  CGR           6          0          1   1.197E-03
  CGR           7          0          1   3.456E-04
  CGR           8          0          1   9.850E-05
  CGR           9          0          1   3.302E-05
  CGR          10          0          1   1.106E-05
  CGR          11          0          1   5.460E-06
  CGR          12          0          1   2.304E-06
  CGR          13          0          1   1.167E-06
  CGR          14          1          0   3.271E-07

    CGRSolver converged.

	-----------------------------------------------------------
	 ==================> DF-MP2 Energies <==================== 
	-----------------------------------------------------------
	 Reference Energy          =   -1646.6090844358011509 [Eh]
	 Singles Energy            =      -0.0000000000000000 [Eh]
	 Same-Spin Energy          =      -0.4967155484420795 [Eh]
	 Opposite-Spin Energy      =      -1.4647341429857947 [Eh]
	 Correlation Energy        =      -1.9614496914278743 [Eh]
	 Total Energy              =   -1648.5705341272289388 [Eh]
	-----------------------------------------------------------
	 ================> DF-SCS-MP2 Energies <================== 
	-----------------------------------------------------------
	 SCS Same-Spin Scale       =       0.3333333333333333 [-]
	 SCS Opposite-Spin Scale   =       1.2000000000000000 [-]
	 SCS Same-Spin Energy      =      -0.1655718494806932 [Eh]
	 SCS Opposite-Spin Energy  =      -1.7576809715829536 [Eh]
	 SCS Correlation Energy    =      -1.9232528210636468 [Eh]
	 SCS Total Energy          =   -1648.5323372568648210 [Eh]
	-----------------------------------------------------------



Properties will be evaluated at  -0.000000,   0.000000,   0.000000 [a0]

Properties computed using the MP2 density matrix

  Nuclear Dipole Moment: [e a0]
     X:   -16.1225      Y:     0.2016      Z:    -0.0000

  Electronic Dipole Moment: [e a0]
     X:    15.2300      Y:    -0.1688      Z:     0.0000

  Dipole Moment: [e a0]
     X:    -0.8925      Y:     0.0329      Z:    -0.0000     Total:     0.8931

  Dipole Moment: [D]
     X:    -2.2686      Y:     0.0836      Z:    -0.0000     Total:     2.2701


*** tstop() called on node59.bme.utexas.edu at Sun Jan 31 16:38:44 2021
Module time:
	user time   =     954.83 seconds =      15.91 minutes
	system time =      24.73 seconds =       0.41 minutes
	total time  =        164 seconds =       2.73 minutes
Total time:
	user time   =    1183.49 seconds =      19.72 minutes
	system time =      32.28 seconds =       0.54 minutes
	total time  =        202 seconds =       3.37 minutes

    Psi4 stopped on: Sunday, 31 January 2021 04:38PM
    Psi4 wall time for execution: 0:03:22.39

*** Psi4 exiting successfully. Buy a developer a beer!
