
    -----------------------------------------------------------------------
          Psi4: An Open-Source Ab Initio Electronic Structure Package
                               Psi4 1.3.2 release

                         Git: Rev {HEAD} ecbda83 


    R. M. Parrish, L. A. Burns, D. G. A. Smith, A. C. Simmonett,
    A. E. DePrince III, E. G. Hohenstein, U. Bozkaya, A. Yu. Sokolov,
    R. Di Remigio, R. M. Richard, J. F. Gonthier, A. M. James,
    H. R. McAlexander, A. Kumar, M. Saitow, X. Wang, B. P. Pritchard,
    P. Verma, H. F. Schaefer III, K. Patkowski, R. A. King, E. F. Valeev,
    F. A. Evangelista, J. M. Turney, T. D. Crawford, and C. D. Sherrill,
    J. Chem. Theory Comput. 13(7) pp 3185--3197 (2017).
    (doi: 10.1021/acs.jctc.7b00174)


                         Additional Contributions by
    P. Kraus, H. Kruse, M. H. Lechner, M. C. Schieber, R. A. Shaw,
    A. Alenaizan, R. Galvelis, Z. L. Glick, S. Lehtola, and J. P. Misiewicz

    -----------------------------------------------------------------------


    Psi4 started on: Saturday, 07 November 2020 04:35AM

    Process ID: 86703
    Host:       node142.bme.utexas.edu
    PSIDATADIR: /home/xy3866/psi4conda/share/psi4
    Memory:     500.0 MiB
    Threads:    8
    
  ==> Input File <==

--------------------------------------------------------------------------
#psi4
#
memory 32 gb

molecule  {
0 1
  O        0.0168640     0.1901590    -0.4020990
  O       -1.3482886    -1.6794537    -0.2375491
  O        1.1131790    -1.1413980     1.1162780
  C       -2.3394790     0.5235580    -0.2686750
  C        2.3972750     0.1605680    -0.4950760
  C       -1.2129060    -0.4792070    -0.2860030
  C        1.1581700    -0.3826440     0.1751130
  C       -3.6769720    -0.1720140    -0.4890940
  C       -2.2983330     1.2966310     1.0564140
  C        2.4741530     1.6802570    -0.2975580
  C        3.6385590    -0.5497050     0.0312540
  H       -2.1437190     1.2306780    -1.0846340
  H        2.2784230    -0.0395630    -1.5677780
  H       -4.4834260     0.5663220    -0.5092150
  H       -3.6860570    -0.7233770    -1.4323560
  H       -3.8736540    -0.8834450     0.3164790
  H       -3.1030040     2.0367670     1.0791630
  H       -2.4386000     0.6130600     1.8994820
  H       -1.3454850     1.8152510     1.1829620
  H        2.5408530     1.9208960     0.7682120
  H        1.5983600     2.1807600    -0.7147640
  H        3.3683510     2.0723810    -0.7901000
  H        3.7622080    -0.3606850     1.1004290
  H        4.5263690    -0.1854060    -0.4932010
  H        3.5668740    -1.6302420    -0.1114630
units angstrom
no_reorient  #important for SAPT in psi4, default
symmetry c1  #important for SAPT in psi4, default
}

set PROPERTIES_ORIGIN ["COM"]
properties('MP2/aug-cc-pvtz', properties = ['dipole'])
--------------------------------------------------------------------------

  Memory set to  29.802 GiB by Python driver.
    SCF Algorithm Type (re)set to DF.

*** tstart() called on node142.bme.utexas.edu
*** at Sat Nov  7 04:35:58 2020

   => Loading Basis Set <=

    Name: AUG-CC-PVTZ
    Role: ORBITAL
    Keyword: BASIS
    atoms 1-3   entry O          line   327 file /home/xy3866/psi4conda/share/psi4/basis/aug-cc-pvtz.gbs 
    atoms 4-11  entry C          line   235 file /home/xy3866/psi4conda/share/psi4/basis/aug-cc-pvtz.gbs 
    atoms 12-25 entry H          line    36 file /home/xy3866/psi4conda/share/psi4/basis/aug-cc-pvtz.gbs 


         ---------------------------------------------------------
                                   SCF
               by Justin Turney, Rob Parrish, Andy Simmonett
                          and Daniel G. A. Smith
                              RHF Reference
                        8 Threads,  30517 MiB Core
         ---------------------------------------------------------

  ==> Geometry <==

    Molecular point group: c1
    Full point group: C1

    Geometry (in Angstrom), charge = 0, multiplicity = 1:

       Center              X                  Y                   Z               Mass       
    ------------   -----------------  -----------------  -----------------  -----------------
         O            0.024664927241     0.243719313828    -0.404506289340    15.994914619570
         O           -1.340487672759    -1.625893386172    -0.239956389340    15.994914619570
         O            1.120979927241    -1.087837686172     1.113870710660    15.994914619570
         C           -2.331678072759     0.577118313828    -0.271082289340    12.000000000000
         C            2.405075927241     0.214128313828    -0.497483289340    12.000000000000
         C           -1.205105072759    -0.425646686172    -0.288410289340    12.000000000000
         C            1.165970927241    -0.329083686172     0.172705710660    12.000000000000
         C           -3.669171072759    -0.118453686172    -0.491501289340    12.000000000000
         C           -2.290532072759     1.350191313828     1.054006710660    12.000000000000
         C            2.481953927241     1.733817313828    -0.299965289340    12.000000000000
         C            3.646359927241    -0.496144686172     0.028846710660    12.000000000000
         H           -2.135918072759     1.284238313828    -1.087041289340     1.007825032230
         H            2.286223927241     0.013997313828    -1.570185289340     1.007825032230
         H           -4.475625072759     0.619882313828    -0.511622289340     1.007825032230
         H           -3.678256072759    -0.669816686172    -1.434763289340     1.007825032230
         H           -3.865853072759    -0.829884686172     0.314071710660     1.007825032230
         H           -3.095203072759     2.090327313828     1.076755710660     1.007825032230
         H           -2.430799072759     0.666620313828     1.897074710660     1.007825032230
         H           -1.337684072759     1.868811313828     1.180554710660     1.007825032230
         H            2.548653927241     1.974456313828     0.765804710660     1.007825032230
         H            1.606160927241     2.234320313828    -0.717171289340     1.007825032230
         H            3.376151927241     2.125941313828    -0.792507289340     1.007825032230
         H            3.770008927241    -0.307124686172     1.098021710660     1.007825032230
         H            4.534169927241    -0.131845686172    -0.495608289340     1.007825032230
         H            3.574674927241    -1.576681686172    -0.113870289340     1.007825032230

  Running in c1 symmetry.

  Rotational constants: A =      0.07650  B =      0.01913  C =      0.01722 [cm^-1]
  Rotational constants: A =   2293.51578  B =    573.43391  C =    516.20804 [MHz]
  Nuclear repulsion =  648.291894934420611

  Charge       = 0
  Multiplicity = 1
  Electrons    = 86
  Nalpha       = 43
  Nbeta        = 43

  ==> Algorithm <==

  SCF Algorithm Type is DF.
  DIIS enabled.
  MOM disabled.
  Fractional occupation disabled.
  Guess Type is SAD.
  Energy threshold   = 1.00e-10
  Density threshold  = 1.00e-10
  Integral threshold = 0.00e+00

  ==> Primary Basis <==

  Basis Set: AUG-CC-PVTZ
    Blend: AUG-CC-PVTZ
    Number of shells: 280
    Number of basis function: 828
    Number of Cartesian functions: 955
    Spherical Harmonics?: true
    Max angular momentum: 3

   => Loading Basis Set <=

    Name: (AUG-CC-PVTZ AUX)
    Role: JKFIT
    Keyword: DF_BASIS_SCF
    atoms 1-3   entry O          line   286 file /home/xy3866/psi4conda/share/psi4/basis/aug-cc-pvtz-jkfit.gbs 
    atoms 4-11  entry C          line   162 file /home/xy3866/psi4conda/share/psi4/basis/aug-cc-pvtz-jkfit.gbs 
    atoms 12-25 entry H          line    70 file /home/xy3866/psi4conda/share/psi4/basis/aug-cc-pvtz-jkfit.gbs 

  ==> Pre-Iterations <==

   -------------------------------------------------------
    Irrep   Nso     Nmo     Nalpha   Nbeta   Ndocc  Nsocc
   -------------------------------------------------------
     A        828     828       0       0       0       0
   -------------------------------------------------------
    Total     828     828      43      43      43       0
   -------------------------------------------------------

  ==> Integral Setup <==

  DFHelper Memory: AOs need 8.347 GiB; user supplied 22.352 GiB. Using in-core AOs.

  ==> MemDFJK: Density-Fitted J/K Matrices <==

    J tasked:                   Yes
    K tasked:                   Yes
    wK tasked:                   No
    OpenMP threads:               8
    Memory [MiB]:             22888
    Algorithm:                 Disk
    Schwarz Cutoff:           1E-12
    Mask sparsity (%):      10.8238
    Fitting Condition:        1E-10

   => Auxiliary Basis Set <=

  Basis Set: (AUG-CC-PVTZ AUX)
    Blend: AUG-CC-PVTZ-JKFIT
    Number of shells: 526
    Number of basis function: 1788
    Number of Cartesian functions: 2211
    Spherical Harmonics?: true
    Max angular momentum: 4

  Minimum eigenvalue in the overlap matrix is 2.4757920685E-06.
  Using Symmetric Orthogonalization.

  SCF Guess: Superposition of Atomic Densities via on-the-fly atomic UHF.

  ==> Iterations <==

                           Total Energy        Delta E     RMS |[F,P]|

   @DF-RHF iter SAD:  -534.67156905902561   -5.34672e+02   0.00000e+00 
   @DF-RHF iter   1:  -535.46174621017553   -7.90177e-01   1.12537e-03 DIIS
   @DF-RHF iter   2:  -535.78227743223738   -3.20531e-01   6.88929e-04 DIIS
   @DF-RHF iter   3:  -535.90194780251272   -1.19670e-01   1.47312e-04 DIIS
   @DF-RHF iter   4:  -535.90979028653783   -7.84248e-03   6.64314e-05 DIIS
   @DF-RHF iter   5:  -535.91156165869802   -1.77137e-03   1.18482e-05 DIIS
   @DF-RHF iter   6:  -535.91166534072090   -1.03682e-04   5.18122e-06 DIIS
   @DF-RHF iter   7:  -535.91168679795317   -2.14572e-05   2.25841e-06 DIIS
   @DF-RHF iter   8:  -535.91169067309465   -3.87514e-06   9.24340e-07 DIIS
   @DF-RHF iter   9:  -535.91169145565618   -7.82562e-07   2.42474e-07 DIIS
   @DF-RHF iter  10:  -535.91169150914686   -5.34907e-08   5.74889e-08 DIIS
   @DF-RHF iter  11:  -535.91169151188990   -2.74304e-09   1.65227e-08 DIIS
   @DF-RHF iter  12:  -535.91169151208146   -1.91562e-10   4.28532e-09 DIIS
   @DF-RHF iter  13:  -535.91169151209760   -1.61435e-11   1.54242e-09 DIIS
   @DF-RHF iter  14:  -535.91169151209897   -1.36424e-12   7.28816e-10 DIIS
   @DF-RHF iter  15:  -535.91169151210102   -2.04636e-12   3.25626e-10 DIIS
   @DF-RHF iter  16:  -535.91169151210318   -2.16005e-12   1.65084e-10 DIIS
   @DF-RHF iter  17:  -535.91169151210090    2.27374e-12   7.50332e-11 DIIS
  Energy and wave function converged.


  ==> Post-Iterations <==

    Orbital Energies [Eh]
    ---------------------

    Doubly Occupied:                                                      

       1A    -20.626425     2A    -20.562459     3A    -20.562081  
       4A    -11.395979     5A    -11.394465     6A    -11.260071  
       7A    -11.256754     8A    -11.236675     9A    -11.233681  
      10A    -11.224233    11A    -11.222617    12A     -1.482014  
      13A     -1.402998    14A     -1.362824    15A     -1.108062  
      16A     -1.094438    17A     -0.952510    18A     -0.946149  
      19A     -0.936496    20A     -0.863255    21A     -0.792128  
      22A     -0.736365    23A     -0.706521    24A     -0.702449  
      25A     -0.676134    26A     -0.646085    27A     -0.629671  
      28A     -0.616183    29A     -0.606837    30A     -0.576436  
      31A     -0.567410    32A     -0.554260    33A     -0.551654  
      34A     -0.535917    35A     -0.533008    36A     -0.527988  
      37A     -0.503027    38A     -0.498449    39A     -0.494933  
      40A     -0.490942    41A     -0.478676    42A     -0.468671  
      43A     -0.432970  

    Virtual:                                                              

      44A      0.023908    45A      0.028841    46A      0.033814  
      47A      0.037785    48A      0.044748    49A      0.046818  
      50A      0.047735    51A      0.058048    52A      0.060560  
      53A      0.062921    54A      0.067532    55A      0.069725  
      56A      0.074679    57A      0.085862    58A      0.099707  
      59A      0.105971    60A      0.107461    61A      0.111284  
      62A      0.113785    63A      0.117953    64A      0.121953  
      65A      0.125090    66A      0.129531    67A      0.132038  
      68A      0.133132    69A      0.136530    70A      0.139176  
      71A      0.142045    72A      0.143881    73A      0.147491  
      74A      0.149763    75A      0.152771    76A      0.159219  
      77A      0.161880    78A      0.167365    79A      0.173110  
      80A      0.175408    81A      0.177648    82A      0.181502  
      83A      0.185000    84A      0.193813    85A      0.199699  
      86A      0.208169    87A      0.215205    88A      0.227589  
      89A      0.228267    90A      0.234126    91A      0.239999  
      92A      0.250183    93A      0.251155    94A      0.256247  
      95A      0.259850    96A      0.263334    97A      0.270145  
      98A      0.274085    99A      0.275592   100A      0.280380  
     101A      0.288120   102A      0.288323   103A      0.295353  
     104A      0.298460   105A      0.302432   106A      0.307296  
     107A      0.315161   108A      0.316525   109A      0.317263  
     110A      0.320521   111A      0.325492   112A      0.326803  
     113A      0.331310   114A      0.336609   115A      0.340942  
     116A      0.345970   117A      0.352983   118A      0.356014  
     119A      0.361595   120A      0.363442   121A      0.369158  
     122A      0.372508   123A      0.373895   124A      0.376505  
     125A      0.380296   126A      0.382814   127A      0.387408  
     128A      0.392748   129A      0.394990   130A      0.399431  
     131A      0.402507   132A      0.405145   133A      0.412760  
     134A      0.414443   135A      0.419908   136A      0.424709  
     137A      0.428381   138A      0.436716   139A      0.438318  
     140A      0.443766   141A      0.446667   142A      0.447952  
     143A      0.450375   144A      0.452486   145A      0.455496  
     146A      0.458969   147A      0.462637   148A      0.464340  
     149A      0.469551   150A      0.471260   151A      0.476138  
     152A      0.480717   153A      0.482867   154A      0.488904  
     155A      0.492392   156A      0.495747   157A      0.499897  
     158A      0.502728   159A      0.506787   160A      0.512223  
     161A      0.514840   162A      0.515197   163A      0.522368  
     164A      0.527583   165A      0.529790   166A      0.537224  
     167A      0.540485   168A      0.543012   169A      0.546294  
     170A      0.553954   171A      0.556863   172A      0.562251  
     173A      0.567276   174A      0.571741   175A      0.572909  
     176A      0.580557   177A      0.584629   178A      0.588762  
     179A      0.592798   180A      0.598355   181A      0.604743  
     182A      0.612668   183A      0.613966   184A      0.615166  
     185A      0.617837   186A      0.629356   187A      0.631662  
     188A      0.639212   189A      0.644119   190A      0.651448  
     191A      0.652635   192A      0.656798   193A      0.663533  
     194A      0.665835   195A      0.670715   196A      0.672199  
     197A      0.683076   198A      0.688255   199A      0.690947  
     200A      0.696616   201A      0.704744   202A      0.714006  
     203A      0.719479   204A      0.727433   205A      0.745758  
     206A      0.752487   207A      0.765877   208A      0.776312  
     209A      0.782364   210A      0.786207   211A      0.792906  
     212A      0.794029   213A      0.805750   214A      0.807908  
     215A      0.810478   216A      0.816615   217A      0.819596  
     218A      0.830770   219A      0.836326   220A      0.843094  
     221A      0.849208   222A      0.854880   223A      0.863772  
     224A      0.866454   225A      0.873027   226A      0.875099  
     227A      0.879869   228A      0.881027   229A      0.883967  
     230A      0.889219   231A      0.893516   232A      0.897394  
     233A      0.903720   234A      0.909115   235A      0.916602  
     236A      0.918608   237A      0.921178   238A      0.927737  
     239A      0.930824   240A      0.933044   241A      0.938630  
     242A      0.943264   243A      0.945852   244A      0.947610  
     245A      0.954312   246A      0.960319   247A      0.966843  
     248A      0.967547   249A      0.973258   250A      0.978566  
     251A      0.986101   252A      0.987827   253A      0.991703  
     254A      1.000949   255A      1.001602   256A      1.007309  
     257A      1.008081   258A      1.011812   259A      1.020243  
     260A      1.027140   261A      1.028067   262A      1.032869  
     263A      1.040589   264A      1.048065   265A      1.057776  
     266A      1.061233   267A      1.071148   268A      1.074805  
     269A      1.080375   270A      1.081500   271A      1.086185  
     272A      1.092779   273A      1.097853   274A      1.101401  
     275A      1.103811   276A      1.111531   277A      1.116324  
     278A      1.123111   279A      1.126199   280A      1.127318  
     281A      1.130022   282A      1.140753   283A      1.146322  
     284A      1.151885   285A      1.156398   286A      1.162689  
     287A      1.166280   288A      1.170501   289A      1.176750  
     290A      1.185138   291A      1.191584   292A      1.196638  
     293A      1.202301   294A      1.206273   295A      1.211947  
     296A      1.214320   297A      1.218720   298A      1.224333  
     299A      1.227855   300A      1.233430   301A      1.239141  
     302A      1.248632   303A      1.255207   304A      1.263945  
     305A      1.271498   306A      1.276621   307A      1.279216  
     308A      1.294262   309A      1.299615   310A      1.303644  
     311A      1.328708   312A      1.331565   313A      1.336390  
     314A      1.340478   315A      1.348732   316A      1.354088  
     317A      1.359929   318A      1.364626   319A      1.374158  
     320A      1.380294   321A      1.385188   322A      1.386798  
     323A      1.395939   324A      1.399261   325A      1.410763  
     326A      1.413150   327A      1.423498   328A      1.427985  
     329A      1.433314   330A      1.443040   331A      1.450478  
     332A      1.451771   333A      1.458334   334A      1.468398  
     335A      1.472155   336A      1.474986   337A      1.485275  
     338A      1.487789   339A      1.494420   340A      1.502693  
     341A      1.503608   342A      1.510558   343A      1.517395  
     344A      1.522016   345A      1.525474   346A      1.538043  
     347A      1.544897   348A      1.555430   349A      1.560135  
     350A      1.564436   351A      1.566078   352A      1.568531  
     353A      1.578644   354A      1.592132   355A      1.596676  
     356A      1.611049   357A      1.618581   358A      1.623818  
     359A      1.631507   360A      1.635882   361A      1.638143  
     362A      1.655643   363A      1.663491   364A      1.666678  
     365A      1.673271   366A      1.678182   367A      1.681841  
     368A      1.689843   369A      1.697000   370A      1.701490  
     371A      1.704577   372A      1.712122   373A      1.717104  
     374A      1.720834   375A      1.722907   376A      1.728780  
     377A      1.733833   378A      1.741358   379A      1.743447  
     380A      1.748070   381A      1.762081   382A      1.762639  
     383A      1.770376   384A      1.772862   385A      1.784764  
     386A      1.789876   387A      1.799655   388A      1.805556  
     389A      1.809733   390A      1.811523   391A      1.823683  
     392A      1.828699   393A      1.834086   394A      1.846918  
     395A      1.850659   396A      1.853457   397A      1.859908  
     398A      1.862921   399A      1.869424   400A      1.874535  
     401A      1.885093   402A      1.889893   403A      1.900207  
     404A      1.908584   405A      1.921998   406A      1.923812  
     407A      1.927669   408A      1.931764   409A      1.943620  
     410A      1.952968   411A      1.959816   412A      1.967486  
     413A      1.977467   414A      1.984990   415A      1.987708  
     416A      1.995105   417A      2.001747   418A      2.004783  
     419A      2.014319   420A      2.020617   421A      2.030725  
     422A      2.037870   423A      2.039802   424A      2.057344  
     425A      2.059882   426A      2.064745   427A      2.074219  
     428A      2.081063   429A      2.088651   430A      2.097673  
     431A      2.104978   432A      2.129285   433A      2.134800  
     434A      2.144736   435A      2.153152   436A      2.157179  
     437A      2.173796   438A      2.184912   439A      2.186413  
     440A      2.211498   441A      2.215726   442A      2.231127  
     443A      2.232631   444A      2.239263   445A      2.247442  
     446A      2.258058   447A      2.266532   448A      2.270222  
     449A      2.280665   450A      2.283270   451A      2.287183  
     452A      2.299987   453A      2.304044   454A      2.322018  
     455A      2.329885   456A      2.334285   457A      2.345165  
     458A      2.351084   459A      2.353829   460A      2.372481  
     461A      2.375603   462A      2.382261   463A      2.389509  
     464A      2.404018   465A      2.418633   466A      2.432284  
     467A      2.441375   468A      2.465185   469A      2.482221  
     470A      2.488398   471A      2.499979   472A      2.502899  
     473A      2.509490   474A      2.518817   475A      2.528454  
     476A      2.538372   477A      2.543363   478A      2.546803  
     479A      2.560079   480A      2.583749   481A      2.607522  
     482A      2.627806   483A      2.634826   484A      2.652659  
     485A      2.670969   486A      2.674957   487A      2.684221  
     488A      2.698960   489A      2.706380   490A      2.716293  
     491A      2.733642   492A      2.740773   493A      2.764033  
     494A      2.774602   495A      2.797305   496A      2.810355  
     497A      2.822516   498A      2.845045   499A      2.849868  
     500A      2.865764   501A      2.899226   502A      2.922534  
     503A      2.941944   504A      2.964567   505A      2.982211  
     506A      2.999774   507A      3.010903   508A      3.022608  
     509A      3.042444   510A      3.062050   511A      3.088160  
     512A      3.093021   513A      3.111292   514A      3.125676  
     515A      3.141894   516A      3.156082   517A      3.180207  
     518A      3.195008   519A      3.238195   520A      3.256073  
     521A      3.289216   522A      3.299431   523A      3.339785  
     524A      3.350654   525A      3.353642   526A      3.381678  
     527A      3.402869   528A      3.414809   529A      3.424773  
     530A      3.444968   531A      3.455791   532A      3.471593  
     533A      3.490092   534A      3.492687   535A      3.506006  
     536A      3.512120   537A      3.522642   538A      3.529751  
     539A      3.535282   540A      3.557835   541A      3.571488  
     542A      3.575950   543A      3.595495   544A      3.601480  
     545A      3.612507   546A      3.617506   547A      3.639617  
     548A      3.642232   549A      3.655029   550A      3.662547  
     551A      3.671612   552A      3.676780   553A      3.682709  
     554A      3.688922   555A      3.696075   556A      3.709153  
     557A      3.715958   558A      3.722876   559A      3.733476  
     560A      3.737133   561A      3.746617   562A      3.755193  
     563A      3.759234   564A      3.760082   565A      3.769486  
     566A      3.779100   567A      3.788559   568A      3.793370  
     569A      3.806199   570A      3.825051   571A      3.831907  
     572A      3.844033   573A      3.853399   574A      3.861895  
     575A      3.871090   576A      3.880313   577A      3.886868  
     578A      3.889781   579A      3.900769   580A      3.913290  
     581A      3.922895   582A      3.926414   583A      3.933797  
     584A      3.946824   585A      3.952331   586A      3.964407  
     587A      3.976247   588A      3.978610   589A      3.986457  
     590A      3.989457   591A      4.000814   592A      4.007074  
     593A      4.013653   594A      4.027244   595A      4.031851  
     596A      4.041924   597A      4.053155   598A      4.058532  
     599A      4.064996   600A      4.071574   601A      4.084585  
     602A      4.092973   603A      4.099383   604A      4.116891  
     605A      4.128973   606A      4.139429   607A      4.152980  
     608A      4.166688   609A      4.189508   610A      4.194015  
     611A      4.194429   612A      4.209477   613A      4.218604  
     614A      4.220967   615A      4.224001   616A      4.231386  
     617A      4.245123   618A      4.248600   619A      4.256599  
     620A      4.264937   621A      4.270773   622A      4.284882  
     623A      4.295138   624A      4.306031   625A      4.317262  
     626A      4.320153   627A      4.332220   628A      4.342798  
     629A      4.351436   630A      4.359145   631A      4.365834  
     632A      4.373051   633A      4.392205   634A      4.401139  
     635A      4.410033   636A      4.442578   637A      4.449734  
     638A      4.457935   639A      4.467569   640A      4.477908  
     641A      4.484968   642A      4.498661   643A      4.525016  
     644A      4.535748   645A      4.547898   646A      4.566158  
     647A      4.572533   648A      4.594672   649A      4.606966  
     650A      4.610634   651A      4.626448   652A      4.631635  
     653A      4.657495   654A      4.665217   655A      4.677384  
     656A      4.682606   657A      4.686507   658A      4.710239  
     659A      4.721300   660A      4.732223   661A      4.741723  
     662A      4.752835   663A      4.777196   664A      4.781049  
     665A      4.784078   666A      4.790427   667A      4.814156  
     668A      4.839300   669A      4.847331   670A      4.857492  
     671A      4.869301   672A      4.872529   673A      4.882978  
     674A      4.888127   675A      4.907086   676A      4.911776  
     677A      4.922103   678A      4.929517   679A      4.940622  
     680A      4.951017   681A      4.968603   682A      4.991596  
     683A      5.008326   684A      5.015077   685A      5.032573  
     686A      5.037044   687A      5.052426   688A      5.072722  
     689A      5.099143   690A      5.114517   691A      5.127182  
     692A      5.133628   693A      5.144230   694A      5.158498  
     695A      5.165654   696A      5.172911   697A      5.207115  
     698A      5.219969   699A      5.230292   700A      5.240680  
     701A      5.245298   702A      5.249323   703A      5.257378  
     704A      5.272890   705A      5.288929   706A      5.296064  
     707A      5.311405   708A      5.320785   709A      5.329554  
     710A      5.340075   711A      5.350697   712A      5.356637  
     713A      5.383171   714A      5.398387   715A      5.404454  
     716A      5.407635   717A      5.436791   718A      5.446556  
     719A      5.453634   720A      5.478231   721A      5.489597  
     722A      5.491822   723A      5.500268   724A      5.524766  
     725A      5.555896   726A      5.564737   727A      5.582588  
     728A      5.589377   729A      5.607898   730A      5.620686  
     731A      5.637169   732A      5.643725   733A      5.653160  
     734A      5.674690   735A      5.695665   736A      5.709728  
     737A      5.748042   738A      5.770176   739A      5.781740  
     740A      5.789215   741A      5.798687   742A      5.808027  
     743A      5.826987   744A      5.863052   745A      5.876467  
     746A      5.906739   747A      5.912166   748A      5.952605  
     749A      5.976039   750A      5.977470   751A      6.016799  
     752A      6.052364   753A      6.085276   754A      6.112039  
     755A      6.119945   756A      6.129832   757A      6.180998  
     758A      6.199024   759A      6.206147   760A      6.211652  
     761A      6.234718   762A      6.254316   763A      6.279055  
     764A      6.285116   765A      6.297729   766A      6.301884  
     767A      6.360600   768A      6.406849   769A      6.421345  
     770A      6.498180   771A      6.621452   772A      6.688759  
     773A      6.698022   774A      6.730081   775A      6.808638  
     776A      6.813909   777A      6.826169   778A      6.836561  
     779A      6.837434   780A      6.858049   781A      6.867869  
     782A      6.893781   783A      6.896428   784A      6.911947  
     785A      6.946417   786A      6.961461   787A      6.981999  
     788A      7.024970   789A      7.039094   790A      7.145068  
     791A      7.154511   792A      7.206785   793A      7.263989  
     794A      7.315794   795A      7.322431   796A      7.336230  
     797A      7.431078   798A      7.447960   799A      7.480359  
     800A      7.496010   801A      7.554522   802A      7.567597  
     803A      7.587610   804A      7.625468   805A      7.691603  
     806A      7.732894   807A      7.767977   808A      7.795300  
     809A      7.833876   810A      7.883256   811A      7.897188  
     812A      7.985563   813A      8.023300   814A      8.057988  
     815A      8.100950   816A      8.416310   817A      8.477859  
     818A     15.186772   819A     16.336503   820A     16.462890  
     821A     17.562598   822A     17.595765   823A     18.274323  
     824A     18.363221   825A     19.147445   826A     19.165686  
     827A     19.624930   828A     20.003319  

    Final Occupation by Irrep:
              A 
    DOCC [    43 ]

  @DF-RHF Final Energy:  -535.91169151210090

   => Energetics <=

    Nuclear Repulsion Energy =            648.2918949344206112
    One-Electron Energy =               -2017.5053801531387307
    Two-Electron Energy =                 833.3017937066173317
    Total Energy =                       -535.9116915121009015

Computation Completed

*** tstop() called on node142.bme.utexas.edu at Sat Nov  7 04:38:56 2020
Module time:
	user time   =     822.92 seconds =      13.72 minutes
	system time =      85.86 seconds =       1.43 minutes
	total time  =        178 seconds =       2.97 minutes
Total time:
	user time   =     822.92 seconds =      13.72 minutes
	system time =      85.86 seconds =       1.43 minutes
	total time  =        178 seconds =       2.97 minutes
   => Loading Basis Set <=

    Name: (AUG-CC-PVTZ AUX)
    Role: RIFIT
    Keyword: DF_BASIS_MP2
    atoms 1-3   entry O          line   264 file /home/xy3866/psi4conda/share/psi4/basis/aug-cc-pvtz-ri.gbs 
    atoms 4-11  entry C          line   148 file /home/xy3866/psi4conda/share/psi4/basis/aug-cc-pvtz-ri.gbs 
    atoms 12-25 entry H          line    30 file /home/xy3866/psi4conda/share/psi4/basis/aug-cc-pvtz-ri.gbs 


*** tstart() called on node142.bme.utexas.edu
*** at Sat Nov  7 04:38:56 2020


  //>>>>>>>>>>>>>>>>>>>>>>>>>>>>>>>>>>>//
  //               DFMP2               //
  //<<<<<<<<<<<<<<<<<<<<<<<<<<<<<<<<<<<//

	 --------------------------------------------------------
	                          DF-MP2                         
	      2nd-Order Density-Fitted Moller-Plesset Theory     
	              RMP2 Wavefunction,   8 Threads             
	                                                         
	        Rob Parrish, Justin Turney, Andy Simmonett,      
	           Ed Hohenstein, and C. David Sherrill          
	 --------------------------------------------------------

   => Auxiliary Basis Set <=

  Basis Set: (AUG-CC-PVTZ AUX)
    Blend: AUG-CC-PVTZ-RI
    Number of shells: 504
    Number of basis function: 1810
    Number of Cartesian functions: 2266
    Spherical Harmonics?: true
    Max angular momentum: 4

	 --------------------------------------------------------
	                 NBF =   828, NAUX =  1810
	 --------------------------------------------------------
	   CLASS    FOCC     OCC    AOCC    AVIR     VIR    FVIR
	   PAIRS       0      43      43     785     785       0
	 --------------------------------------------------------

  DFHelper Memory: AOs need 8.347 GiB; user supplied 22.352 GiB. Using in-core AOs.


         ------------------------------------------------------------
                                     CPHF                           
                                  Rob Parrish                       
         ------------------------------------------------------------

  ==> Geometry <==

    Molecular point group: c1
    Full point group: C1

    Geometry (in Angstrom), charge = 0, multiplicity = 1:

       Center              X                  Y                   Z               Mass       
    ------------   -----------------  -----------------  -----------------  -----------------
         O            0.024664927241     0.243719313828    -0.404506289340    15.994914619570
         O           -1.340487672759    -1.625893386172    -0.239956389340    15.994914619570
         O            1.120979927241    -1.087837686172     1.113870710660    15.994914619570
         C           -2.331678072759     0.577118313828    -0.271082289340    12.000000000000
         C            2.405075927241     0.214128313828    -0.497483289340    12.000000000000
         C           -1.205105072759    -0.425646686172    -0.288410289340    12.000000000000
         C            1.165970927241    -0.329083686172     0.172705710660    12.000000000000
         C           -3.669171072759    -0.118453686172    -0.491501289340    12.000000000000
         C           -2.290532072759     1.350191313828     1.054006710660    12.000000000000
         C            2.481953927241     1.733817313828    -0.299965289340    12.000000000000
         C            3.646359927241    -0.496144686172     0.028846710660    12.000000000000
         H           -2.135918072759     1.284238313828    -1.087041289340     1.007825032230
         H            2.286223927241     0.013997313828    -1.570185289340     1.007825032230
         H           -4.475625072759     0.619882313828    -0.511622289340     1.007825032230
         H           -3.678256072759    -0.669816686172    -1.434763289340     1.007825032230
         H           -3.865853072759    -0.829884686172     0.314071710660     1.007825032230
         H           -3.095203072759     2.090327313828     1.076755710660     1.007825032230
         H           -2.430799072759     0.666620313828     1.897074710660     1.007825032230
         H           -1.337684072759     1.868811313828     1.180554710660     1.007825032230
         H            2.548653927241     1.974456313828     0.765804710660     1.007825032230
         H            1.606160927241     2.234320313828    -0.717171289340     1.007825032230
         H            3.376151927241     2.125941313828    -0.792507289340     1.007825032230
         H            3.770008927241    -0.307124686172     1.098021710660     1.007825032230
         H            4.534169927241    -0.131845686172    -0.495608289340     1.007825032230
         H            3.574674927241    -1.576681686172    -0.113870289340     1.007825032230

  Nuclear repulsion =  648.291894934420611
  Reference energy  = -535.911691512100901

  ==> Basis Set <==

  Basis Set: AUG-CC-PVTZ
    Blend: AUG-CC-PVTZ
    Number of shells: 280
    Number of basis function: 828
    Number of Cartesian functions: 955
    Spherical Harmonics?: true
    Max angular momentum: 3

  ==> CGRSolver (by Rob Parrish) <==

   Number of roots    =         1
   Preconditioning    =    JACOBI
   Convergence cutoff =     1E-06
   Maximum iterations =       100

  ==> CPHFRHamiltonian (by Rob Parrish) <== 

  ==> MemDFJK: Density-Fitted J/K Matrices <==

    J tasked:                   Yes
    K tasked:                   Yes
    wK tasked:                   No
    OpenMP threads:               8
    Memory [MiB]:             22888
    Algorithm:                 Disk
    Schwarz Cutoff:           1E-12
    Mask sparsity (%):      10.8238
    Fitting Condition:        1E-10

   => Auxiliary Basis Set <=

  Basis Set: (AUG-CC-PVTZ AUX)
    Blend: AUG-CC-PVTZ-JKFIT
    Number of shells: 526
    Number of basis function: 1788
    Number of Cartesian functions: 2211
    Spherical Harmonics?: true
    Max angular momentum: 4

  ==> CPHF Iterations <==

  => Iterations <=

             Iter  Converged  Remaining    Residual
  CGR           1          0          1   1.177E-01
  CGR           2          0          1   3.516E-02
  CGR           3          0          1   1.190E-02
  CGR           4          0          1   4.275E-03
  CGR           5          0          1   1.343E-03
  CGR           6          0          1   3.615E-04
  CGR           7          0          1   1.251E-04
  CGR           8          0          1   4.287E-05
  CGR           9          0          1   1.937E-05
  CGR          10          0          1   1.043E-05
  CGR          11          0          1   4.033E-06
  CGR          12          0          1   1.121E-06
  CGR          13          1          0   3.215E-07

    CGRSolver converged.

	-----------------------------------------------------------
	 ==================> DF-MP2 Energies <==================== 
	-----------------------------------------------------------
	 Reference Energy          =    -535.9116915121009015 [Eh]
	 Singles Energy            =      -0.0000000000000000 [Eh]
	 Same-Spin Energy          =      -0.5374574361111927 [Eh]
	 Opposite-Spin Energy      =      -1.7525342620262736 [Eh]
	 Correlation Energy        =      -2.2899916981374662 [Eh]
	 Total Energy              =    -538.2016832102383432 [Eh]
	-----------------------------------------------------------
	 ================> DF-SCS-MP2 Energies <================== 
	-----------------------------------------------------------
	 SCS Same-Spin Scale       =       0.3333333333333333 [-]
	 SCS Opposite-Spin Scale   =       1.2000000000000000 [-]
	 SCS Same-Spin Energy      =      -0.1791524787037309 [Eh]
	 SCS Opposite-Spin Energy  =      -2.1030411144315284 [Eh]
	 SCS Correlation Energy    =      -2.2821935931352595 [Eh]
	 SCS Total Energy          =    -538.1938851052361770 [Eh]
	-----------------------------------------------------------



Properties will be evaluated at   0.000000,  -0.000000,  -0.000000 [a0]

Properties computed using the MP2 density matrix

  Nuclear Dipole Moment: [e a0]
     X:     0.6335      Y:     8.7659      Z:    -0.3638

  Electronic Dipole Moment: [e a0]
     X:    -0.5022      Y:    -7.4381      Z:    -0.1971

  Dipole Moment: [e a0]
     X:     0.1312      Y:     1.3278      Z:    -0.5609     Total:     1.4474

  Dipole Moment: [D]
     X:     0.3335      Y:     3.3750      Z:    -1.4257     Total:     3.6789


*** tstop() called on node142.bme.utexas.edu at Sat Nov  7 04:46:57 2020
Module time:
	user time   =    2974.12 seconds =      49.57 minutes
	system time =     111.08 seconds =       1.85 minutes
	total time  =        481 seconds =       8.02 minutes
Total time:
	user time   =    3798.18 seconds =      63.30 minutes
	system time =     197.02 seconds =       3.28 minutes
	total time  =        659 seconds =      10.98 minutes

    Psi4 stopped on: Saturday, 07 November 2020 04:46AM
    Psi4 wall time for execution: 0:11:00.34

*** Psi4 exiting successfully. Buy a developer a beer!
