017_BenF Gaussian SP Calculation on node35.bme.utexas.edu               
Freq      RMP2-FC                                                     6-31G(d)            
Number of atoms                            I               12
Info1-9                                    I   N=           9
          23          22        1002           0           0         100
           6           2           1
Charge                                     I                0
Multiplicity                               I                1
Number of electrons                        I               50
Number of alpha electrons                  I               25
Number of beta electrons                   I               25
Number of basis functions                  I              115
Number of independent functions            I              115
Number of point charges in /Mol/           I                0
Number of translation vectors              I                0
Atomic numbers                             I   N=          12
           9           6           6           6           6           6
           6           1           1           1           1           1
Nuclear charges                            R   N=          12
  9.00000000E+00  6.00000000E+00  6.00000000E+00  6.00000000E+00  6.00000000E+00
  6.00000000E+00  6.00000000E+00  1.00000000E+00  1.00000000E+00  1.00000000E+00
  1.00000000E+00  1.00000000E+00
Current cartesian coordinates              R   N=          36
  4.32156981E+00 -2.61585302E-07 -3.40239138E-04  1.75374768E+00 -4.57353728E-08
 -1.40020648E-04  4.91084947E-01  2.30242512E+00 -2.63601926E-04  4.91084594E-01
 -2.30242492E+00  1.77871166E-04 -2.14737569E+00  2.28518668E+00 -4.58352486E-05
 -2.14737592E+00 -2.28518674E+00  3.92069190E-04 -3.46952734E+00  2.67733878E-07
  2.73536576E-04  1.56766137E+00  4.04895555E+00 -5.11684622E-04  1.56766101E+00
 -4.04895544E+00  2.65313443E-04 -3.16824171E+00  4.06760325E+00 -1.38934710E-04
 -3.16824228E+00 -4.06760300E+00  6.40222867E-04 -5.52279636E+00 -1.37647575E-07
  4.43120606E-04
Force Field                                I                0
Int Atom Types                             I   N=          12
           0           0           0           0           0           0
           0           0           0           0           0           0
MM charges                                 R   N=          12
  0.00000000E+00  0.00000000E+00  0.00000000E+00  0.00000000E+00  0.00000000E+00
  0.00000000E+00  0.00000000E+00  0.00000000E+00  0.00000000E+00  0.00000000E+00
  0.00000000E+00  0.00000000E+00
Integer atomic weights                     I   N=          12
          19          12          12          12          12          12
          12           1           1           1           1           1
Real atomic weights                        R   N=          12
  1.89984032E+01  1.20000000E+01  1.20000000E+01  1.20000000E+01  1.20000000E+01
  1.20000000E+01  1.20000000E+01  1.00782504E+00  1.00782504E+00  1.00782504E+00
  1.00782504E+00  1.00782504E+00
Atom fragment info                         I   N=          12
           0           0           0           0           0           0
           0           0           0           0           0           0
Atom residue num                           I   N=          12
           0           0           0           0           0           0
           0           0           0           0           0           0
Nuclear spins                              I   N=          12
           1           0           0           0           0           0
           0           1           1           1           1           1
Nuclear ZEff                               R   N=          12
 -6.75000000E+00 -3.60000000E+00 -3.60000000E+00 -3.60000000E+00 -3.60000000E+00
 -3.60000000E+00 -3.60000000E+00 -1.00000000E+00 -1.00000000E+00 -1.00000000E+00
 -1.00000000E+00 -1.00000000E+00
Nuclear QMom                               R   N=          12
  0.00000000E+00  0.00000000E+00  0.00000000E+00  0.00000000E+00  0.00000000E+00
  0.00000000E+00  0.00000000E+00  0.00000000E+00  0.00000000E+00  0.00000000E+00
  0.00000000E+00  0.00000000E+00
Nuclear GFac                               R   N=          12
  2.62886700E+00  0.00000000E+00  0.00000000E+00  0.00000000E+00  0.00000000E+00
  0.00000000E+00  0.00000000E+00  2.79284600E+00  2.79284600E+00  2.79284600E+00
  2.79284600E+00  2.79284600E+00
MicOpt                                     I   N=          12
          -1          -1          -1          -1          -1          -1
          -1          -1          -1          -1          -1          -1
Number of contracted shells                I               38
Number of primitive shells                 I               97
Pure/Cartesian d shells                    I                1
Pure/Cartesian f shells                    I                0
Highest angular momentum                   I                2
Largest degree of contraction              I                6
Shell types                                I   N=          38
           0          -1          -1           2           0          -1
          -1           2           0          -1          -1           2
           0          -1          -1           2           0          -1
          -1           2           0          -1          -1           2
           0          -1          -1           2           0           0
           0           0           0           0           0           0
           0           0
Number of primitives per shell             I   N=          38
           6           3           1           1           6           3
           1           1           6           3           1           1
           6           3           1           1           6           3
           1           1           6           3           1           1
           6           3           1           1           3           1
           3           1           3           1           3           1
           3           1
Shell to atom map                          I   N=          38
           1           1           1           1           2           2
           2           2           3           3           3           3
           4           4           4           4           5           5
           5           5           6           6           6           6
           7           7           7           7           8           8
           9           9          10          10          11          11
          12          12
Primitive exponents                        R   N=          97
  7.00171309E+03  1.05136609E+03  2.39285690E+02  6.73974453E+01  2.15199573E+01
  7.40310130E+00  2.08479528E+01  4.80830834E+00  1.34406986E+00  3.58151393E-01
  8.00000000E-01  3.04752488E+03  4.57369518E+02  1.03948685E+02  2.92101553E+01
  9.28666296E+00  3.16392696E+00  7.86827235E+00  1.88128854E+00  5.44249258E-01
  1.68714478E-01  8.00000000E-01  3.04752488E+03  4.57369518E+02  1.03948685E+02
  2.92101553E+01  9.28666296E+00  3.16392696E+00  7.86827235E+00  1.88128854E+00
  5.44249258E-01  1.68714478E-01  8.00000000E-01  3.04752488E+03  4.57369518E+02
  1.03948685E+02  2.92101553E+01  9.28666296E+00  3.16392696E+00  7.86827235E+00
  1.88128854E+00  5.44249258E-01  1.68714478E-01  8.00000000E-01  3.04752488E+03
  4.57369518E+02  1.03948685E+02  2.92101553E+01  9.28666296E+00  3.16392696E+00
  7.86827235E+00  1.88128854E+00  5.44249258E-01  1.68714478E-01  8.00000000E-01
  3.04752488E+03  4.57369518E+02  1.03948685E+02  2.92101553E+01  9.28666296E+00
  3.16392696E+00  7.86827235E+00  1.88128854E+00  5.44249258E-01  1.68714478E-01
  8.00000000E-01  3.04752488E+03  4.57369518E+02  1.03948685E+02  2.92101553E+01
  9.28666296E+00  3.16392696E+00  7.86827235E+00  1.88128854E+00  5.44249258E-01
  1.68714478E-01  8.00000000E-01  1.87311370E+01  2.82539436E+00  6.40121692E-01
  1.61277759E-01  1.87311370E+01  2.82539436E+00  6.40121692E-01  1.61277759E-01
  1.87311370E+01  2.82539436E+00  6.40121692E-01  1.61277759E-01  1.87311370E+01
  2.82539436E+00  6.40121692E-01  1.61277759E-01  1.87311370E+01  2.82539436E+00
  6.40121692E-01  1.61277759E-01
Contraction coefficients                   R   N=          97
  1.81961690E-03  1.39160796E-02  6.84053245E-02  2.33185760E-01  4.71267439E-01
  3.56618546E-01 -1.08506975E-01 -1.46451658E-01  1.12868858E+00  1.00000000E+00
  1.00000000E+00  1.83473713E-03  1.40373228E-02  6.88426223E-02  2.32184443E-01
  4.67941348E-01  3.62311985E-01 -1.19332420E-01 -1.60854152E-01  1.14345644E+00
  1.00000000E+00  1.00000000E+00  1.83473713E-03  1.40373228E-02  6.88426223E-02
  2.32184443E-01  4.67941348E-01  3.62311985E-01 -1.19332420E-01 -1.60854152E-01
  1.14345644E+00  1.00000000E+00  1.00000000E+00  1.83473713E-03  1.40373228E-02
  6.88426223E-02  2.32184443E-01  4.67941348E-01  3.62311985E-01 -1.19332420E-01
 -1.60854152E-01  1.14345644E+00  1.00000000E+00  1.00000000E+00  1.83473713E-03
  1.40373228E-02  6.88426223E-02  2.32184443E-01  4.67941348E-01  3.62311985E-01
 -1.19332420E-01 -1.60854152E-01  1.14345644E+00  1.00000000E+00  1.00000000E+00
  1.83473713E-03  1.40373228E-02  6.88426223E-02  2.32184443E-01  4.67941348E-01
  3.62311985E-01 -1.19332420E-01 -1.60854152E-01  1.14345644E+00  1.00000000E+00
  1.00000000E+00  1.83473713E-03  1.40373228E-02  6.88426223E-02  2.32184443E-01
  4.67941348E-01  3.62311985E-01 -1.19332420E-01 -1.60854152E-01  1.14345644E+00
  1.00000000E+00  1.00000000E+00  3.34946043E-02  2.34726953E-01  8.13757326E-01
  1.00000000E+00  3.34946043E-02  2.34726953E-01  8.13757326E-01  1.00000000E+00
  3.34946043E-02  2.34726953E-01  8.13757326E-01  1.00000000E+00  3.34946043E-02
  2.34726953E-01  8.13757326E-01  1.00000000E+00  3.34946043E-02  2.34726953E-01
  8.13757326E-01  1.00000000E+00
P(S=P) Contraction coefficients            R   N=          97
  0.00000000E+00  0.00000000E+00  0.00000000E+00  0.00000000E+00  0.00000000E+00
  0.00000000E+00  7.16287242E-02  3.45912103E-01  7.22469956E-01  1.00000000E+00
  0.00000000E+00  0.00000000E+00  0.00000000E+00  0.00000000E+00  0.00000000E+00
  0.00000000E+00  0.00000000E+00  6.89990666E-02  3.16423961E-01  7.44308291E-01
  1.00000000E+00  0.00000000E+00  0.00000000E+00  0.00000000E+00  0.00000000E+00
  0.00000000E+00  0.00000000E+00  0.00000000E+00  6.89990666E-02  3.16423961E-01
  7.44308291E-01  1.00000000E+00  0.00000000E+00  0.00000000E+00  0.00000000E+00
  0.00000000E+00  0.00000000E+00  0.00000000E+00  0.00000000E+00  6.89990666E-02
  3.16423961E-01  7.44308291E-01  1.00000000E+00  0.00000000E+00  0.00000000E+00
  0.00000000E+00  0.00000000E+00  0.00000000E+00  0.00000000E+00  0.00000000E+00
  6.89990666E-02  3.16423961E-01  7.44308291E-01  1.00000000E+00  0.00000000E+00
  0.00000000E+00  0.00000000E+00  0.00000000E+00  0.00000000E+00  0.00000000E+00
  0.00000000E+00  6.89990666E-02  3.16423961E-01  7.44308291E-01  1.00000000E+00
  0.00000000E+00  0.00000000E+00  0.00000000E+00  0.00000000E+00  0.00000000E+00
  0.00000000E+00  0.00000000E+00  6.89990666E-02  3.16423961E-01  7.44308291E-01
  1.00000000E+00  0.00000000E+00  0.00000000E+00  0.00000000E+00  0.00000000E+00
  0.00000000E+00  0.00000000E+00  0.00000000E+00  0.00000000E+00  0.00000000E+00
  0.00000000E+00  0.00000000E+00  0.00000000E+00  0.00000000E+00  0.00000000E+00
  0.00000000E+00  0.00000000E+00  0.00000000E+00  0.00000000E+00  0.00000000E+00
  0.00000000E+00  0.00000000E+00
Coordinates of each shell                  R   N=         114
  4.32156981E+00 -2.61585302E-07 -3.40239138E-04  4.32156981E+00 -2.61585302E-07
 -3.40239138E-04  4.32156981E+00 -2.61585302E-07 -3.40239138E-04  4.32156981E+00
 -2.61585302E-07 -3.40239138E-04  1.75374768E+00 -4.57353728E-08 -1.40020648E-04
  1.75374768E+00 -4.57353728E-08 -1.40020648E-04  1.75374768E+00 -4.57353728E-08
 -1.40020648E-04  1.75374768E+00 -4.57353728E-08 -1.40020648E-04  4.91084947E-01
  2.30242512E+00 -2.63601926E-04  4.91084947E-01  2.30242512E+00 -2.63601926E-04
  4.91084947E-01  2.30242512E+00 -2.63601926E-04  4.91084947E-01  2.30242512E+00
 -2.63601926E-04  4.91084594E-01 -2.30242492E+00  1.77871166E-04  4.91084594E-01
 -2.30242492E+00  1.77871166E-04  4.91084594E-01 -2.30242492E+00  1.77871166E-04
  4.91084594E-01 -2.30242492E+00  1.77871166E-04 -2.14737569E+00  2.28518668E+00
 -4.58352486E-05 -2.14737569E+00  2.28518668E+00 -4.58352486E-05 -2.14737569E+00
  2.28518668E+00 -4.58352486E-05 -2.14737569E+00  2.28518668E+00 -4.58352486E-05
 -2.14737592E+00 -2.28518674E+00  3.92069190E-04 -2.14737592E+00 -2.28518674E+00
  3.92069190E-04 -2.14737592E+00 -2.28518674E+00  3.92069190E-04 -2.14737592E+00
 -2.28518674E+00  3.92069190E-04 -3.46952734E+00  2.67733878E-07  2.73536576E-04
 -3.46952734E+00  2.67733878E-07  2.73536576E-04 -3.46952734E+00  2.67733878E-07
  2.73536576E-04 -3.46952734E+00  2.67733878E-07  2.73536576E-04  1.56766137E+00
  4.04895555E+00 -5.11684622E-04  1.56766137E+00  4.04895555E+00 -5.11684622E-04
  1.56766101E+00 -4.04895544E+00  2.65313443E-04  1.56766101E+00 -4.04895544E+00
  2.65313443E-04 -3.16824171E+00  4.06760325E+00 -1.38934710E-04 -3.16824171E+00
  4.06760325E+00 -1.38934710E-04 -3.16824228E+00 -4.06760300E+00  6.40222867E-04
 -3.16824228E+00 -4.06760300E+00  6.40222867E-04 -5.52279636E+00 -1.37647575E-07
  4.43120606E-04 -5.52279636E+00 -1.37647575E-07  4.43120606E-04
Constraint Structure                       R   N=          36
  4.32156981E+00 -2.61585302E-07 -3.40239138E-04  1.75374768E+00 -4.57353728E-08
 -1.40020648E-04  4.91084947E-01  2.30242512E+00 -2.63601926E-04  4.91084594E-01
 -2.30242492E+00  1.77871166E-04 -2.14737569E+00  2.28518668E+00 -4.58352486E-05
 -2.14737592E+00 -2.28518674E+00  3.92069190E-04 -3.46952734E+00  2.67733878E-07
  2.73536576E-04  1.56766137E+00  4.04895555E+00 -5.11684622E-04  1.56766101E+00
 -4.04895544E+00  2.65313443E-04 -3.16824171E+00  4.06760325E+00 -1.38934710E-04
 -3.16824228E+00 -4.06760300E+00  6.40222867E-04 -5.52279636E+00 -1.37647575E-07
  4.43120606E-04
Num ILSW                                   I              100
ILSW                                       I   N=         100
           0           1           0           0           2           0
           0           0           0           0           0          -1
           0           0           0           0           0           0
           0           0           0           0           1           0
           1           0           0           0           0           0
           0           0      100000           0          -1           0
           0           0           0           0           0           0
           0           0           0           1           1           0
           0           0           1           0           0           0
           0           0           4          40           0           0
           0           0           0           0           0           0
           0           0           0           0           0           0
           0           0           0           0           0           0
           0           0           0           0           0           0
           0           0           0           0           0           0
           0           0           0           0           0           0
           0           0           0           0
Num RLSW                                   I               40
RLSW                                       R   N=          40
  1.00000000E+00  1.00000000E+00  1.00000000E+00  1.00000000E+00  1.00000000E+00
  0.00000000E+00  0.00000000E+00  1.00000000E+00  0.00000000E+00  0.00000000E+00
  0.00000000E+00  0.00000000E+00  1.00000000E+00  0.00000000E+00  0.00000000E+00
  0.00000000E+00  0.00000000E+00  1.00000000E+00  0.00000000E+00  0.00000000E+00
  0.00000000E+00  0.00000000E+00  1.00000000E+00  0.00000000E+00  0.00000000E+00
  0.00000000E+00  0.00000000E+00  1.00000000E+00  0.00000000E+00  0.00000000E+00
  0.00000000E+00  0.00000000E+00  0.00000000E+00  0.00000000E+00  0.00000000E+00
  0.00000000E+00  0.00000000E+00  0.00000000E+00  1.00000000E+00  1.00000000E+00
MxBond                                     I                3
NBond                                      I   N=          12
           1           3           3           3           3           3
           3           1           1           1           1           1
IBond                                      I   N=          36
           2           0           0           1           3           4
           2           5           8           2           6           9
           3           7          10           4           7          11
           5           6          12           3           0           0
           4           0           0           5           0           0
           6           0           0           7           0           0
RBond                                      R   N=          36
  1.00000000E+00  0.00000000E+00  0.00000000E+00  1.00000000E+00  1.50000000E+00
  1.50000000E+00  1.50000000E+00  1.50000000E+00  1.00000000E+00  1.50000000E+00
  1.50000000E+00  1.00000000E+00  1.50000000E+00  1.50000000E+00  1.00000000E+00
  1.50000000E+00  1.50000000E+00  1.00000000E+00  1.50000000E+00  1.50000000E+00
  1.00000000E+00  1.00000000E+00  0.00000000E+00  0.00000000E+00  1.00000000E+00
  0.00000000E+00  0.00000000E+00  1.00000000E+00  0.00000000E+00  0.00000000E+00
  1.00000000E+00  0.00000000E+00  0.00000000E+00  1.00000000E+00  0.00000000E+00
  0.00000000E+00
Virial Ratio                               R      2.002210020025020E+00
SCF Energy                                 R     -3.295527129566110E+02
MP2 Energy                                 R     -3.304770024148477E+02
Total Energy                               R     -3.304770024148477E+02
Post-SCF wavefunction norm                 R      1.621292362104836E+00
RMS Force                                  R      1.358801374144814E-06
RMS Density                                R      2.759643731192266E-09
External E-field                           R   N=          35
  0.00000000E+00  0.00000000E+00  0.00000000E+00  0.00000000E+00  0.00000000E+00
  0.00000000E+00  0.00000000E+00  0.00000000E+00  0.00000000E+00  0.00000000E+00
  0.00000000E+00  0.00000000E+00  0.00000000E+00  0.00000000E+00  0.00000000E+00
  0.00000000E+00  0.00000000E+00  0.00000000E+00  0.00000000E+00  0.00000000E+00
  0.00000000E+00  0.00000000E+00  0.00000000E+00  0.00000000E+00  0.00000000E+00
  0.00000000E+00  0.00000000E+00  0.00000000E+00  0.00000000E+00  0.00000000E+00
  0.00000000E+00  0.00000000E+00  0.00000000E+00  0.00000000E+00  0.00000000E+00
IOpCl                                      I                0
IROHF                                      I                0
Alpha Orbital Energies                     R   N=         115
 -2.63030336E+01 -1.13282956E+01 -1.12512658E+01 -1.12512065E+01 -1.12443403E+01
 -1.12443265E+01 -1.12416486E+01 -1.60948170E+00 -1.15855101E+00 -1.02758130E+00
 -1.01695937E+00 -8.49005482E-01 -8.33460066E-01 -7.34782302E-01 -6.88437176E-01
 -6.80991531E-01 -6.77846681E-01 -6.18921296E-01 -6.00776047E-01 -5.87130004E-01
 -5.26670925E-01 -5.02970631E-01 -5.02685972E-01 -3.46576850E-01 -3.34373385E-01
  1.30280376E-01  1.46155908E-01  2.26413219E-01  2.83377712E-01  2.97172977E-01
  3.19016699E-01  3.27701717E-01  3.61774373E-01  3.73651087E-01  4.37914334E-01
  4.64363984E-01  5.23731116E-01  5.30654871E-01  6.66450366E-01  7.07137691E-01
  7.24110496E-01  7.38427928E-01  7.98189497E-01  8.01195263E-01  8.18721023E-01
  8.21287663E-01  8.26119984E-01  8.27378229E-01  8.59201565E-01  8.71640798E-01
  8.99077632E-01  9.03865900E-01  9.88184002E-01  1.04717018E+00  1.09809452E+00
  1.10460018E+00  1.11577011E+00  1.14236295E+00  1.15908049E+00  1.18363704E+00
  1.18955495E+00  1.22884607E+00  1.29309305E+00  1.30945795E+00  1.40152136E+00
  1.42698261E+00  1.47372142E+00  1.49157106E+00  1.52194920E+00  1.66095460E+00
  1.66707062E+00  1.68307185E+00  1.72966609E+00  1.73253643E+00  1.75906353E+00
  1.77176230E+00  1.77778494E+00  1.97874463E+00  2.07704392E+00  2.08258520E+00
  2.12972092E+00  2.14327518E+00  2.19454042E+00  2.26280637E+00  2.26924095E+00
  2.28496672E+00  2.29231978E+00  2.36778821E+00  2.42816009E+00  2.44231395E+00
  2.45618572E+00  2.50187991E+00  2.55826344E+00  2.61696132E+00  2.62107072E+00
  2.64260233E+00  2.82996420E+00  2.86151952E+00  2.89138817E+00  2.99250537E+00
  3.01894513E+00  3.04865777E+00  3.05238221E+00  3.08717358E+00  3.21644876E+00
  3.46399678E+00  3.50303997E+00  3.77891886E+00  4.49813970E+00  4.51425630E+00
  4.52877278E+00  4.73852641E+00  4.73994399E+00  5.03315113E+00  5.64847391E+00
Alpha MO coefficients                      R   N=       13225
  9.94431685E-01  1.77866431E-02 -9.16052825E-04  6.36794676E-11  7.12720984E-08
  8.04441572E-03  6.65193019E-04 -3.98949185E-11 -5.15798089E-08 -5.04662749E-03
 -4.50739259E-03 -4.53223672E-03  4.68229691E-11  4.61993727E-08 -2.74944522E-09
 -1.67930253E-05  2.10796976E-04  5.51401613E-04 -5.32702091E-11 -4.29594458E-08
  7.11994399E-04 -2.41919745E-04 -8.48004650E-11  1.79468971E-08  3.42719376E-04
  3.27824930E-05 -7.37214027E-05 -2.80426578E-11 -3.74378771E-08 -1.17898508E-08
  5.90585907E-06  1.09225139E-04 -9.16466911E-06  1.02774032E-05 -3.47483210E-10
 -3.88691911E-04 -9.78730237E-05  3.60976114E-04 -2.69565544E-08 -7.47861652E-05
 -5.67192288E-05  5.48867253E-06  4.67751580E-05  2.81713875E-09  3.34647216E-09
  5.90585849E-06  1.09225149E-04 -9.16466817E-06 -1.02773993E-05  1.61903698E-09
 -3.88692085E-04 -9.78731491E-05 -3.60976181E-04  4.22809291E-08 -7.47861972E-05
 -5.67192249E-05  5.48866955E-06 -4.67751637E-05  1.17850217E-08  1.04286198E-08
 -3.04553804E-06 -2.38223426E-05  9.75261873E-06  8.45262453E-06 -1.67758921E-09
  2.18188468E-04  2.67959936E-05 -2.87329893E-04  2.53447307E-08  2.05096102E-05
  5.16574855E-06 -6.77493050E-06  9.37831418E-06 -3.56984580E-09 -1.94168313E-09
 -3.04553675E-06 -2.38223366E-05  9.75262959E-06 -8.45262723E-06 -5.55225806E-11
  2.18188245E-04  2.67960562E-05  2.87329876E-04 -2.97189704E-08  2.05096198E-05
  5.16574725E-06 -6.77492860E-06 -9.37830766E-06 -1.77171401E-09 -7.02438884E-10
  3.95228663E-06  2.86669363E-05 -5.98331117E-06 -4.49462114E-12  4.87541949E-10
 -4.64076696E-04 -2.23771616E-04 -2.87735282E-11  1.69603468E-08 -2.73395600E-06
 -1.36918695E-05  7.70945577E-06 -3.06974028E-12  7.82603730E-10  2.36686694E-09
  1.92723164E-05 -1.15401043E-04  1.92723278E-05 -1.15401048E-04  1.83854230E-05
  8.05210756E-05  1.83854283E-05  8.05211197E-05 -1.39961432E-06 -5.11773270E-05
  2.32133834E-04  2.29463013E-03 -4.89472672E-04  4.96108683E-11  3.87955291E-08
 -7.34286989E-03  2.76238087E-03 -2.93095785E-10 -2.17915416E-07 -1.18231296E-05
  1.56164874E-03  1.69594796E-03  1.67334307E-10  1.54060749E-07  1.48665489E-08
  9.95850884E-01  2.68947627E-02  1.67599226E-03 -4.46940492E-10 -1.34898097E-07
 -1.54300518E-02  7.76307097E-03 -2.98611911E-10 -5.96411720E-07 -4.67749224E-04
 -1.16873428E-03 -2.03595326E-03 -5.75536818E-12 -1.42015298E-07 -9.60317270E-08
  6.89680040E-03 -2.27648219E-04  1.90817654E-05  1.39771409E-04 -1.50597504E-08
  8.78513225E-03 -2.09939492E-03 -4.78694500E-03  6.26227984E-07 -4.50518036E-04
 -2.73010096E-04 -2.13168736E-04  1.35074859E-04  7.06032330E-09 -4.76999968E-09
  6.89680031E-03 -2.27648265E-04  1.90816628E-05 -1.39771479E-04  1.18001778E-08
  8.78513380E-03 -2.09939443E-03  4.78694520E-03 -2.92145291E-07 -4.50518124E-04
 -2.73010093E-04 -2.13168760E-04 -1.35074849E-04  3.29476906E-08  1.80622532E-08
  5.17504296E-05  3.38517402E-05 -6.72955813E-05  3.24256221E-05  1.33892350E-09
 -4.82050110E-03 -1.36219043E-03  1.82452312E-03 -5.38331370E-08  1.19136171E-04
  4.18483113E-05  9.21834106E-06 -4.51394856E-05 -4.88938530E-09 -1.84691722E-09
  5.17504529E-05  3.38518363E-05 -6.72955886E-05 -3.24255932E-05  7.56034841E-09
 -4.82050030E-03 -1.36219117E-03 -1.82452398E-03  2.95665579E-07  1.19136210E-04
  4.18482600E-05  9.21834740E-06  4.51394185E-05 -1.35227859E-08 -5.40544311E-09
 -1.76542633E-04 -2.73926475E-04 -6.52688476E-05 -2.98235380E-11  5.05786524E-09
  3.62635820E-03  2.35204768E-03  1.85867195E-10 -1.86949987E-07 -2.35434104E-05
  1.40057221E-05 -1.14425409E-04  7.92473648E-12 -6.96399938E-09 -1.42165535E-08
  1.21346423E-04  1.32676583E-03  1.21346401E-04  1.32676561E-03 -3.77903410E-05
 -2.97723236E-04 -3.77904448E-05 -2.97723947E-04  7.49132712E-05  6.10567183E-04
 -1.45055081E-05 -7.63134008E-05  1.58015801E-05  2.41235334E-09 -4.88224224E-10
  1.74600252E-04 -1.13196969E-04 -1.45698859E-08  5.82363483E-09 -4.24878457E-05
 -5.63038570E-05 -6.96730617E-05  4.45739390E-09 -1.90742643E-09 -1.48136222E-09
 -8.73714316E-04 -7.45277162E-05  1.20758197E-05  6.46555809E-10 -2.41189608E-09
 -3.02852193E-03  1.32499240E-03  4.92758132E-08 -9.45122368E-08  6.99674394E-05
  5.67810934E-05  8.91152744E-06  7.77082893E-09 -6.77276588E-09 -5.30836935E-09
  5.78807560E-02  1.32408973E-03  1.45501314E-04  4.14484232E-05 -1.57824298E-08
  5.04726511E-03 -2.05579612E-03 -1.76774919E-03  3.31959229E-07 -4.64655238E-04
 -3.00530634E-04 -2.92943926E-04  3.32088037E-05  1.33900806E-08 -2.37695602E-09
  5.78934383E-02  1.32442687E-03  1.45526928E-04 -4.14457157E-05 -7.81922656E-09
  5.04780653E-03 -2.05598573E-03  1.76783946E-03 -7.27304812E-09 -4.64754708E-04
 -3.00594811E-04 -2.92987566E-04 -3.32159086E-05  1.97276499E-08  4.03856520E-09
  6.98974252E-01  1.94070191E-02  1.32768821E-04 -1.06966373E-04 -4.80703262E-09
 -1.18035360E-02 -1.49593716E-03  2.43074074E-03 -9.53308635E-08 -1.10425075E-03
 -1.14165924E-03 -1.63620665E-03  1.02402896E-04 -5.76681975E-08 -6.46325779E-08
  6.99122398E-01  1.94111376E-02  1.32794694E-04  1.06999307E-04 -2.53170488E-08
 -1.18053655E-02 -1.49603495E-03 -2.43096695E-03  3.70375691E-07 -1.10449013E-03
 -1.14193134E-03 -1.63655607E-03 -1.02420910E-04 -3.79841023E-08 -4.47773663E-08
  8.47985306E-02  1.97937864E-03 -1.67588298E-04  1.80968702E-08  1.29030052E-08
  7.66633859E-03  3.50681502E-03 -1.86979066E-07 -2.80477081E-07 -5.53684809E-04
 -8.16578032E-04 -4.07113343E-04  1.17403875E-08  1.34505564E-08  4.52930968E-08
  1.06206556E-05  6.00844527E-04  1.06088997E-05  6.00869685E-04 -1.80494001E-04
  7.90482775E-04 -1.80523018E-04  7.90702255E-04 -1.58488473E-05  7.27059346E-04
 -1.54061867E-09 -8.12371657E-09  1.67078907E-09 -2.29029547E-05  2.20315374E-09
  1.86713305E-08 -1.19688931E-08  1.38197938E-04 -1.32789851E-08 -4.51528771E-09
 -5.97262410E-09 -7.40057896E-09 -4.22698127E-05  4.05849478E-09  3.24375693E-09
 -9.35567688E-08 -7.99476173E-09  1.29123326E-09 -6.34545382E-06  5.82869584E-10
 -3.18668925E-07  1.39262250E-07 -4.70050355E-04  4.51484527E-08  7.31667990E-09
  5.92194077E-09  9.09662596E-10 -7.33228973E-05  7.01996214E-09  5.76350950E-09
  6.08825881E-02  1.62014490E-03  1.20998444E-04 -1.30788341E-05 -8.67254236E-09
  2.55198140E-03 -8.94651628E-04 -4.30274482E-04  1.13129602E-07 -4.73060718E-04
 -3.05291888E-04 -2.08707944E-04  3.39098173E-05  2.23978419E-08  7.87578039E-09
 -6.08701889E-02 -1.61986033E-03 -1.20967791E-04 -1.30875634E-05  1.11569377E-08
 -2.55091918E-03  8.94218132E-04 -4.29901467E-04 -3.06041201E-08  4.72962227E-04
  3.05228218E-04  2.08645636E-04  3.39027390E-05 -2.88676941E-08 -1.34822388E-08
  7.01453719E-01  1.95024556E-02  1.22142248E-04 -1.57237994E-04  1.93821671E-09
 -8.66633830E-03 -4.58423524E-04  1.07421726E-03 -5.86465293E-08 -1.13439375E-03
 -1.28834683E-03 -1.65506129E-03  8.72101938E-05 -5.64677375E-08 -4.78517861E-08
 -7.01306107E-01 -1.94983568E-02 -1.22114312E-04 -1.57215185E-04  2.81732602E-08
  8.66384760E-03  4.58108355E-04  1.07370456E-03 -1.47013626E-07  1.13416019E-03
  1.28810567E-03  1.65471557E-03  8.71882101E-05  3.96791213E-08  3.32572586E-08
  9.05045771E-06  2.11372457E-07 -1.78029597E-08 -1.73119304E-04  1.65994678E-08
  8.08481631E-07  3.70372800E-07  1.77459603E-03 -1.70096434E-07 -5.85949011E-08
 -8.62696274E-08 -4.31863622E-08 -1.09739355E-04  1.05294759E-08  6.81099347E-09
 -5.57838190E-05  1.21488619E-04  5.57860051E-05 -1.21361415E-04 -1.36800331E-04
  1.03899170E-03  1.36762339E-04 -1.03882476E-03 -1.67376965E-09  7.70570284E-08
 -8.62103360E-09 -9.78374696E-08  1.24335582E-08 -1.87700318E-05  1.79224257E-09
  2.62441463E-07 -4.36299703E-08 -7.05454018E-05  6.78272901E-09  9.54835680E-09
 -3.07658214E-08 -7.43991927E-08 -6.52393731E-05  6.24795632E-09  5.15945578E-09
 -3.83978444E-06 -2.06933481E-07  3.57552232E-08 -1.96541278E-04  1.88264071E-08
  3.50591556E-06 -1.27381563E-06  1.97049729E-03 -1.88832016E-07 -2.11082768E-07
 -2.84432204E-07 -6.94622890E-08  1.15862859E-04 -1.10665684E-08 -7.69815595E-09
  7.01632058E-01  1.97205590E-02 -7.30061543E-05 -2.88808960E-04  3.69737210E-08
 -9.36588648E-03  6.25440709E-04  1.27390076E-03 -1.79941473E-07 -1.13420599E-03
 -1.30626242E-03 -1.67727393E-03 -8.01060970E-05 -4.23778385E-08 -3.41300241E-08
 -7.01122326E-01 -1.97062327E-02  7.29590355E-05 -2.88607442E-04  1.83567542E-08
  9.35644222E-03 -6.24162885E-04  1.27177527E-03 -6.42219059E-08  1.13342905E-03
  1.30546425E-03  1.67607727E-03 -8.00154619E-05  5.75976786E-08  4.80371915E-08
 -6.12586115E-02 -1.77883369E-03 -1.21693281E-04  3.17972652E-05  7.53325993E-09
  3.72135280E-03  1.21974912E-03 -5.00506755E-04 -5.08419621E-08 -2.60469501E-04
 -7.81687613E-05  9.03472367E-05 -4.99234570E-05  3.82994122E-08  2.27040219E-08
  6.12171377E-02  1.77748255E-03  1.21582747E-04  3.17525217E-05 -1.35930373E-08
 -3.71624660E-03 -1.21809956E-03 -4.98952881E-04  1.46356807E-07  2.60268977E-04
  7.80867237E-05 -9.03552157E-05 -4.99027199E-05 -2.86877315E-08 -1.46070075E-08
 -1.00519552E-05 -2.63880552E-07 -1.94783509E-09 -5.50806633E-06  5.49605464E-10
 -1.46149347E-06 -8.23400750E-07 -1.99093751E-04  1.90873158E-08  7.76728200E-08
  7.48150640E-08  4.26323898E-08  8.18707640E-05 -7.86527614E-09 -5.98445482E-09