181_Diisopropylsulfide Gaussian SP Calculation on node73.bme.utexas.edu 
Freq      RMP2-FC                                                     6-31G(d)            
Number of atoms                            I               21
Info1-9                                    I   N=           9
          32          31        1002           0           0         100
           6           2           1
Charge                                     I                0
Multiplicity                               I                1
Number of electrons                        I               66
Number of alpha electrons                  I               33
Number of beta electrons                   I               33
Number of basis functions                  I              137
Number of independent functions            I              137
Number of point charges in /Mol/           I                0
Number of translation vectors              I                0
Atomic numbers                             I   N=          21
          16           6           6           6           6           6
           6           1           1           1           1           1
           1           1           1           1           1           1
           1           1           1
Nuclear charges                            R   N=          21
  1.60000000E+01  6.00000000E+00  6.00000000E+00  6.00000000E+00  6.00000000E+00
  6.00000000E+00  6.00000000E+00  1.00000000E+00  1.00000000E+00  1.00000000E+00
  1.00000000E+00  1.00000000E+00  1.00000000E+00  1.00000000E+00  1.00000000E+00
  1.00000000E+00  1.00000000E+00  1.00000000E+00  1.00000000E+00  1.00000000E+00
  1.00000000E+00
Current cartesian coordinates              R   N=          63
  1.38828776E-07  1.68843239E+00  1.33458417E-06  2.66959708E+00 -4.51717711E-01
  4.44023200E-01 -2.66959224E+00 -4.51714835E-01 -4.44021868E-01  3.06955706E+00
 -2.21808635E+00 -1.79432880E+00  4.98883897E+00  1.20621951E+00  8.92955713E-01
 -3.06956300E+00 -2.21808423E+00  1.79432937E+00 -4.98883622E+00  1.20622095E+00
 -8.92959302E-01  2.32583411E+00 -1.56690778E+00  2.15366631E+00 -2.32583198E+00
 -1.56690872E+00 -2.15366341E+00  4.73897147E+00 -3.39887594E+00 -1.46800128E+00
  1.45961738E+00 -3.47775065E+00 -2.09189492E+00  3.36617002E+00 -1.12467529E+00
 -3.52346329E+00  6.64266182E+00  1.53384538E-02  1.24687055E+00  4.72124546E+00
  2.44933217E+00  2.52117131E+00  5.37742987E+00  2.37756410E+00 -7.65830606E-01
 -4.73898296E+00 -3.39886521E+00  1.46799979E+00 -1.45962963E+00 -3.47775655E+00
  2.09189523E+00 -3.36617078E+00 -1.12467271E+00  3.52346443E+00 -6.64265405E+00
  1.53377078E-02 -1.24688921E+00 -4.72123599E+00  2.44934203E+00 -2.52116735E+00
 -5.37743678E+00  2.37755619E+00  7.65831218E-01
Force Field                                I                0
Int Atom Types                             I   N=          21
           0           0           0           0           0           0
           0           0           0           0           0           0
           0           0           0           0           0           0
           0           0           0
MM charges                                 R   N=          21
  0.00000000E+00  0.00000000E+00  0.00000000E+00  0.00000000E+00  0.00000000E+00
  0.00000000E+00  0.00000000E+00  0.00000000E+00  0.00000000E+00  0.00000000E+00
  0.00000000E+00  0.00000000E+00  0.00000000E+00  0.00000000E+00  0.00000000E+00
  0.00000000E+00  0.00000000E+00  0.00000000E+00  0.00000000E+00  0.00000000E+00
  0.00000000E+00
Integer atomic weights                     I   N=          21
          32          12          12          12          12          12
          12           1           1           1           1           1
           1           1           1           1           1           1
           1           1           1
Real atomic weights                        R   N=          21
  3.19720718E+01  1.20000000E+01  1.20000000E+01  1.20000000E+01  1.20000000E+01
  1.20000000E+01  1.20000000E+01  1.00782504E+00  1.00782504E+00  1.00782504E+00
  1.00782504E+00  1.00782504E+00  1.00782504E+00  1.00782504E+00  1.00782504E+00
  1.00782504E+00  1.00782504E+00  1.00782504E+00  1.00782504E+00  1.00782504E+00
  1.00782504E+00
Atom fragment info                         I   N=          21
           0           0           0           0           0           0
           0           0           0           0           0           0
           0           0           0           0           0           0
           0           0           0
Atom residue num                           I   N=          21
           0           0           0           0           0           0
           0           0           0           0           0           0
           0           0           0           0           0           0
           0           0           0
Nuclear spins                              I   N=          21
           0           0           0           0           0           0
           0           1           1           1           1           1
           1           1           1           1           1           1
           1           1           1
Nuclear ZEff                               R   N=          21
 -1.36000000E+01 -3.60000000E+00 -3.60000000E+00 -3.60000000E+00 -3.60000000E+00
 -3.60000000E+00 -3.60000000E+00 -1.00000000E+00 -1.00000000E+00 -1.00000000E+00
 -1.00000000E+00 -1.00000000E+00 -1.00000000E+00 -1.00000000E+00 -1.00000000E+00
 -1.00000000E+00 -1.00000000E+00 -1.00000000E+00 -1.00000000E+00 -1.00000000E+00
 -1.00000000E+00
Nuclear QMom                               R   N=          21
  0.00000000E+00  0.00000000E+00  0.00000000E+00  0.00000000E+00  0.00000000E+00
  0.00000000E+00  0.00000000E+00  0.00000000E+00  0.00000000E+00  0.00000000E+00
  0.00000000E+00  0.00000000E+00  0.00000000E+00  0.00000000E+00  0.00000000E+00
  0.00000000E+00  0.00000000E+00  0.00000000E+00  0.00000000E+00  0.00000000E+00
  0.00000000E+00
Nuclear GFac                               R   N=          21
  0.00000000E+00  0.00000000E+00  0.00000000E+00  0.00000000E+00  0.00000000E+00
  0.00000000E+00  0.00000000E+00  2.79284600E+00  2.79284600E+00  2.79284600E+00
  2.79284600E+00  2.79284600E+00  2.79284600E+00  2.79284600E+00  2.79284600E+00
  2.79284600E+00  2.79284600E+00  2.79284600E+00  2.79284600E+00  2.79284600E+00
  2.79284600E+00
MicOpt                                     I   N=          21
          -1          -1          -1          -1          -1          -1
          -1          -1          -1          -1          -1          -1
          -1          -1          -1          -1          -1          -1
          -1          -1          -1
Number of contracted shells                I               57
Number of primitive shells                 I              139
Pure/Cartesian d shells                    I                1
Pure/Cartesian f shells                    I                0
Highest angular momentum                   I                2
Largest degree of contraction              I                6
Shell types                                I   N=          57
           0          -1          -1          -1           2           0
          -1          -1           2           0          -1          -1
           2           0          -1          -1           2           0
          -1          -1           2           0          -1          -1
           2           0          -1          -1           2           0
           0           0           0           0           0           0
           0           0           0           0           0           0
           0           0           0           0           0           0
           0           0           0           0           0           0
           0           0           0
Number of primitives per shell             I   N=          57
           6           6           3           1           1           6
           3           1           1           6           3           1
           1           6           3           1           1           6
           3           1           1           6           3           1
           1           6           3           1           1           3
           1           3           1           3           1           3
           1           3           1           3           1           3
           1           3           1           3           1           3
           1           3           1           3           1           3
           1           3           1
Shell to atom map                          I   N=          57
           1           1           1           1           1           2
           2           2           2           3           3           3
           3           4           4           4           4           5
           5           5           5           6           6           6
           6           7           7           7           7           8
           8           9           9          10          10          11
          11          12          12          13          13          14
          14          15          15          16          16          17
          17          18          18          19          19          20
          20          21          21
Primitive exponents                        R   N=         139
  2.19171000E+04  3.30149000E+03  7.54146000E+02  2.12711000E+02  6.79896000E+01
  2.30515000E+01  4.23735000E+02  1.00710000E+02  3.21599000E+01  1.18079000E+01
  4.63110000E+00  1.87025000E+00  2.61584000E+00  9.22167000E-01  3.41287000E-01
  1.17167000E-01  6.50000000E-01  3.04752488E+03  4.57369518E+02  1.03948685E+02
  2.92101553E+01  9.28666296E+00  3.16392696E+00  7.86827235E+00  1.88128854E+00
  5.44249258E-01  1.68714478E-01  8.00000000E-01  3.04752488E+03  4.57369518E+02
  1.03948685E+02  2.92101553E+01  9.28666296E+00  3.16392696E+00  7.86827235E+00
  1.88128854E+00  5.44249258E-01  1.68714478E-01  8.00000000E-01  3.04752488E+03
  4.57369518E+02  1.03948685E+02  2.92101553E+01  9.28666296E+00  3.16392696E+00
  7.86827235E+00  1.88128854E+00  5.44249258E-01  1.68714478E-01  8.00000000E-01
  3.04752488E+03  4.57369518E+02  1.03948685E+02  2.92101553E+01  9.28666296E+00
  3.16392696E+00  7.86827235E+00  1.88128854E+00  5.44249258E-01  1.68714478E-01
  8.00000000E-01  3.04752488E+03  4.57369518E+02  1.03948685E+02  2.92101553E+01
  9.28666296E+00  3.16392696E+00  7.86827235E+00  1.88128854E+00  5.44249258E-01
  1.68714478E-01  8.00000000E-01  3.04752488E+03  4.57369518E+02  1.03948685E+02
  2.92101553E+01  9.28666296E+00  3.16392696E+00  7.86827235E+00  1.88128854E+00
  5.44249258E-01  1.68714478E-01  8.00000000E-01  1.87311370E+01  2.82539436E+00
  6.40121692E-01  1.61277759E-01  1.87311370E+01  2.82539436E+00  6.40121692E-01
  1.61277759E-01  1.87311370E+01  2.82539436E+00  6.40121692E-01  1.61277759E-01
  1.87311370E+01  2.82539436E+00  6.40121692E-01  1.61277759E-01  1.87311370E+01
  2.82539436E+00  6.40121692E-01  1.61277759E-01  1.87311370E+01  2.82539436E+00
  6.40121692E-01  1.61277759E-01  1.87311370E+01  2.82539436E+00  6.40121692E-01
  1.61277759E-01  1.87311370E+01  2.82539436E+00  6.40121692E-01  1.61277759E-01
  1.87311370E+01  2.82539436E+00  6.40121692E-01  1.61277759E-01  1.87311370E+01
  2.82539436E+00  6.40121692E-01  1.61277759E-01  1.87311370E+01  2.82539436E+00
  6.40121692E-01  1.61277759E-01  1.87311370E+01  2.82539436E+00  6.40121692E-01
  1.61277759E-01  1.87311370E+01  2.82539436E+00  6.40121692E-01  1.61277759E-01
  1.87311370E+01  2.82539436E+00  6.40121692E-01  1.61277759E-01
Contraction coefficients                   R   N=         139
  1.86924085E-03  1.42303065E-02  6.96962317E-02  2.38487108E-01  4.83307220E-01
  3.38074154E-01 -2.37677050E-03 -3.16930067E-02 -1.13317024E-01  5.60900118E-02
  5.92255124E-01  4.55006095E-01 -2.50373114E-01  6.69567631E-02  1.05450627E+00
  1.00000000E+00  1.00000000E+00  1.83473713E-03  1.40373228E-02  6.88426223E-02
  2.32184443E-01  4.67941348E-01  3.62311985E-01 -1.19332420E-01 -1.60854152E-01
  1.14345644E+00  1.00000000E+00  1.00000000E+00  1.83473713E-03  1.40373228E-02
  6.88426223E-02  2.32184443E-01  4.67941348E-01  3.62311985E-01 -1.19332420E-01
 -1.60854152E-01  1.14345644E+00  1.00000000E+00  1.00000000E+00  1.83473713E-03
  1.40373228E-02  6.88426223E-02  2.32184443E-01  4.67941348E-01  3.62311985E-01
 -1.19332420E-01 -1.60854152E-01  1.14345644E+00  1.00000000E+00  1.00000000E+00
  1.83473713E-03  1.40373228E-02  6.88426223E-02  2.32184443E-01  4.67941348E-01
  3.62311985E-01 -1.19332420E-01 -1.60854152E-01  1.14345644E+00  1.00000000E+00
  1.00000000E+00  1.83473713E-03  1.40373228E-02  6.88426223E-02  2.32184443E-01
  4.67941348E-01  3.62311985E-01 -1.19332420E-01 -1.60854152E-01  1.14345644E+00
  1.00000000E+00  1.00000000E+00  1.83473713E-03  1.40373228E-02  6.88426223E-02
  2.32184443E-01  4.67941348E-01  3.62311985E-01 -1.19332420E-01 -1.60854152E-01
  1.14345644E+00  1.00000000E+00  1.00000000E+00  3.34946043E-02  2.34726953E-01
  8.13757326E-01  1.00000000E+00  3.34946043E-02  2.34726953E-01  8.13757326E-01
  1.00000000E+00  3.34946043E-02  2.34726953E-01  8.13757326E-01  1.00000000E+00
  3.34946043E-02  2.34726953E-01  8.13757326E-01  1.00000000E+00  3.34946043E-02
  2.34726953E-01  8.13757326E-01  1.00000000E+00  3.34946043E-02  2.34726953E-01
  8.13757326E-01  1.00000000E+00  3.34946043E-02  2.34726953E-01  8.13757326E-01
  1.00000000E+00  3.34946043E-02  2.34726953E-01  8.13757326E-01  1.00000000E+00
  3.34946043E-02  2.34726953E-01  8.13757326E-01  1.00000000E+00  3.34946043E-02
  2.34726953E-01  8.13757326E-01  1.00000000E+00  3.34946043E-02  2.34726953E-01
  8.13757326E-01  1.00000000E+00  3.34946043E-02  2.34726953E-01  8.13757326E-01
  1.00000000E+00  3.34946043E-02  2.34726953E-01  8.13757326E-01  1.00000000E+00
  3.34946043E-02  2.34726953E-01  8.13757326E-01  1.00000000E+00
P(S=P) Contraction coefficients            R   N=         139
  0.00000000E+00  0.00000000E+00  0.00000000E+00  0.00000000E+00  0.00000000E+00
  0.00000000E+00  4.06100998E-03  3.06812999E-02  1.30451999E-01  3.27204999E-01
  4.52850998E-01  2.56041999E-01 -1.45104895E-02  3.10262776E-01  7.54482456E-01
  1.00000000E+00  0.00000000E+00  0.00000000E+00  0.00000000E+00  0.00000000E+00
  0.00000000E+00  0.00000000E+00  0.00000000E+00  6.89990666E-02  3.16423961E-01
  7.44308291E-01  1.00000000E+00  0.00000000E+00  0.00000000E+00  0.00000000E+00
  0.00000000E+00  0.00000000E+00  0.00000000E+00  0.00000000E+00  6.89990666E-02
  3.16423961E-01  7.44308291E-01  1.00000000E+00  0.00000000E+00  0.00000000E+00
  0.00000000E+00  0.00000000E+00  0.00000000E+00  0.00000000E+00  0.00000000E+00
  6.89990666E-02  3.16423961E-01  7.44308291E-01  1.00000000E+00  0.00000000E+00
  0.00000000E+00  0.00000000E+00  0.00000000E+00  0.00000000E+00  0.00000000E+00
  0.00000000E+00  6.89990666E-02  3.16423961E-01  7.44308291E-01  1.00000000E+00
  0.00000000E+00  0.00000000E+00  0.00000000E+00  0.00000000E+00  0.00000000E+00
  0.00000000E+00  0.00000000E+00  6.89990666E-02  3.16423961E-01  7.44308291E-01
  1.00000000E+00  0.00000000E+00  0.00000000E+00  0.00000000E+00  0.00000000E+00
  0.00000000E+00  0.00000000E+00  0.00000000E+00  6.89990666E-02  3.16423961E-01
  7.44308291E-01  1.00000000E+00  0.00000000E+00  0.00000000E+00  0.00000000E+00
  0.00000000E+00  0.00000000E+00  0.00000000E+00  0.00000000E+00  0.00000000E+00
  0.00000000E+00  0.00000000E+00  0.00000000E+00  0.00000000E+00  0.00000000E+00
  0.00000000E+00  0.00000000E+00  0.00000000E+00  0.00000000E+00  0.00000000E+00
  0.00000000E+00  0.00000000E+00  0.00000000E+00  0.00000000E+00  0.00000000E+00
  0.00000000E+00  0.00000000E+00  0.00000000E+00  0.00000000E+00  0.00000000E+00
  0.00000000E+00  0.00000000E+00  0.00000000E+00  0.00000000E+00  0.00000000E+00
  0.00000000E+00  0.00000000E+00  0.00000000E+00  0.00000000E+00  0.00000000E+00
  0.00000000E+00  0.00000000E+00  0.00000000E+00  0.00000000E+00  0.00000000E+00
  0.00000000E+00  0.00000000E+00  0.00000000E+00  0.00000000E+00  0.00000000E+00
  0.00000000E+00  0.00000000E+00  0.00000000E+00  0.00000000E+00  0.00000000E+00
  0.00000000E+00  0.00000000E+00  0.00000000E+00  0.00000000E+00
Coordinates of each shell                  R   N=         171
  1.38828776E-07  1.68843239E+00  1.33458417E-06  1.38828776E-07  1.68843239E+00
  1.33458417E-06  1.38828776E-07  1.68843239E+00  1.33458417E-06  1.38828776E-07
  1.68843239E+00  1.33458417E-06  1.38828776E-07  1.68843239E+00  1.33458417E-06
  2.66959708E+00 -4.51717711E-01  4.44023200E-01  2.66959708E+00 -4.51717711E-01
  4.44023200E-01  2.66959708E+00 -4.51717711E-01  4.44023200E-01  2.66959708E+00
 -4.51717711E-01  4.44023200E-01 -2.66959224E+00 -4.51714835E-01 -4.44021868E-01
 -2.66959224E+00 -4.51714835E-01 -4.44021868E-01 -2.66959224E+00 -4.51714835E-01
 -4.44021868E-01 -2.66959224E+00 -4.51714835E-01 -4.44021868E-01  3.06955706E+00
 -2.21808635E+00 -1.79432880E+00  3.06955706E+00 -2.21808635E+00 -1.79432880E+00
  3.06955706E+00 -2.21808635E+00 -1.79432880E+00  3.06955706E+00 -2.21808635E+00
 -1.79432880E+00  4.98883897E+00  1.20621951E+00  8.92955713E-01  4.98883897E+00
  1.20621951E+00  8.92955713E-01  4.98883897E+00  1.20621951E+00  8.92955713E-01
  4.98883897E+00  1.20621951E+00  8.92955713E-01 -3.06956300E+00 -2.21808423E+00
  1.79432937E+00 -3.06956300E+00 -2.21808423E+00  1.79432937E+00 -3.06956300E+00
 -2.21808423E+00  1.79432937E+00 -3.06956300E+00 -2.21808423E+00  1.79432937E+00
 -4.98883622E+00  1.20622095E+00 -8.92959302E-01 -4.98883622E+00  1.20622095E+00
 -8.92959302E-01 -4.98883622E+00  1.20622095E+00 -8.92959302E-01 -4.98883622E+00
  1.20622095E+00 -8.92959302E-01  2.32583411E+00 -1.56690778E+00  2.15366631E+00
  2.32583411E+00 -1.56690778E+00  2.15366631E+00 -2.32583198E+00 -1.56690872E+00
 -2.15366341E+00 -2.32583198E+00 -1.56690872E+00 -2.15366341E+00  4.73897147E+00
 -3.39887594E+00 -1.46800128E+00  4.73897147E+00 -3.39887594E+00 -1.46800128E+00
  1.45961738E+00 -3.47775065E+00 -2.09189492E+00  1.45961738E+00 -3.47775065E+00
 -2.09189492E+00  3.36617002E+00 -1.12467529E+00 -3.52346329E+00  3.36617002E+00
 -1.12467529E+00 -3.52346329E+00  6.64266182E+00  1.53384538E-02  1.24687055E+00
  6.64266182E+00  1.53384538E-02  1.24687055E+00  4.72124546E+00  2.44933217E+00
  2.52117131E+00  4.72124546E+00  2.44933217E+00  2.52117131E+00  5.37742987E+00
  2.37756410E+00 -7.65830606E-01  5.37742987E+00  2.37756410E+00 -7.65830606E-01
 -4.73898296E+00 -3.39886521E+00  1.46799979E+00 -4.73898296E+00 -3.39886521E+00
  1.46799979E+00 -1.45962963E+00 -3.47775655E+00  2.09189523E+00 -1.45962963E+00
 -3.47775655E+00  2.09189523E+00 -3.36617078E+00 -1.12467271E+00  3.52346443E+00
 -3.36617078E+00 -1.12467271E+00  3.52346443E+00 -6.64265405E+00  1.53377078E-02
 -1.24688921E+00 -6.64265405E+00  1.53377078E-02 -1.24688921E+00 -4.72123599E+00
  2.44934203E+00 -2.52116735E+00 -4.72123599E+00  2.44934203E+00 -2.52116735E+00
 -5.37743678E+00  2.37755619E+00  7.65831218E-01 -5.37743678E+00  2.37755619E+00
  7.65831218E-01
Constraint Structure                       R   N=          63
  1.38828776E-07  1.68843239E+00  1.33458417E-06  2.66959708E+00 -4.51717711E-01
  4.44023200E-01 -2.66959224E+00 -4.51714835E-01 -4.44021868E-01  3.06955706E+00
 -2.21808635E+00 -1.79432880E+00  4.98883897E+00  1.20621951E+00  8.92955713E-01
 -3.06956300E+00 -2.21808423E+00  1.79432937E+00 -4.98883622E+00  1.20622095E+00
 -8.92959302E-01  2.32583411E+00 -1.56690778E+00  2.15366631E+00 -2.32583198E+00
 -1.56690872E+00 -2.15366341E+00  4.73897147E+00 -3.39887594E+00 -1.46800128E+00
  1.45961738E+00 -3.47775065E+00 -2.09189492E+00  3.36617002E+00 -1.12467529E+00
 -3.52346329E+00  6.64266182E+00  1.53384538E-02  1.24687055E+00  4.72124546E+00
  2.44933217E+00  2.52117131E+00  5.37742987E+00  2.37756410E+00 -7.65830606E-01
 -4.73898296E+00 -3.39886521E+00  1.46799979E+00 -1.45962963E+00 -3.47775655E+00
  2.09189523E+00 -3.36617078E+00 -1.12467271E+00  3.52346443E+00 -6.64265405E+00
  1.53377078E-02 -1.24688921E+00 -4.72123599E+00  2.44934203E+00 -2.52116735E+00
 -5.37743678E+00  2.37755619E+00  7.65831218E-01
Num ILSW                                   I              100
ILSW                                       I   N=         100
           0           1           0           0           2           0
           0           0           0           0           0          -1
           0           0           0           0           0           0
           0           0           0           0           1           0
           1           0           0           0           0           0
           0           0      100000           0          -1           0
           0           0           0           0           0           0
           0           0           0           1           1           0
           0           0           1           0           0           0
           0           0           4          40           0           0
           0           0           0           0           0           0
           0           0           0           0           0           0
           0           0           0           0           0           0
           0           0           0           0           0           0
           0           0           0           0           0           0
           0           0           0           0           0           0
           0           0           0           0
Num RLSW                                   I               40
RLSW                                       R   N=          40
  1.00000000E+00  1.00000000E+00  1.00000000E+00  1.00000000E+00  1.00000000E+00
  0.00000000E+00  0.00000000E+00  1.00000000E+00  0.00000000E+00  0.00000000E+00
  0.00000000E+00  0.00000000E+00  1.00000000E+00  0.00000000E+00  0.00000000E+00
  0.00000000E+00  0.00000000E+00  1.00000000E+00  0.00000000E+00  0.00000000E+00
  0.00000000E+00  0.00000000E+00  1.00000000E+00  0.00000000E+00  0.00000000E+00
  0.00000000E+00  0.00000000E+00  1.00000000E+00  0.00000000E+00  0.00000000E+00
  0.00000000E+00  0.00000000E+00  0.00000000E+00  0.00000000E+00  0.00000000E+00
  0.00000000E+00  0.00000000E+00  0.00000000E+00  1.00000000E+00  1.00000000E+00
MxBond                                     I                4
NBond                                      I   N=          21
           2           4           4           4           4           4
           4           1           1           1           1           1
           1           1           1           1           1           1
           1           1           1
IBond                                      I   N=          84
           2           3           0           0           1           4
           5           8           1           6           7           9
           2          10          11          12           2          13
          14          15           3          16          17          18
           3          19          20          21           2           0
           0           0           3           0           0           0
           4           0           0           0           4           0
           0           0           4           0           0           0
           5           0           0           0           5           0
           0           0           5           0           0           0
           6           0           0           0           6           0
           0           0           6           0           0           0
           7           0           0           0           7           0
           0           0           7           0           0           0
RBond                                      R   N=          84
  1.00000000E+00  1.00000000E+00  0.00000000E+00  0.00000000E+00  1.00000000E+00
  1.00000000E+00  1.00000000E+00  1.00000000E+00  1.00000000E+00  1.00000000E+00
  1.00000000E+00  1.00000000E+00  1.00000000E+00  1.00000000E+00  1.00000000E+00
  1.00000000E+00  1.00000000E+00  1.00000000E+00  1.00000000E+00  1.00000000E+00
  1.00000000E+00  1.00000000E+00  1.00000000E+00  1.00000000E+00  1.00000000E+00
  1.00000000E+00  1.00000000E+00  1.00000000E+00  1.00000000E+00  0.00000000E+00
  0.00000000E+00  0.00000000E+00  1.00000000E+00  0.00000000E+00  0.00000000E+00
  0.00000000E+00  1.00000000E+00  0.00000000E+00  0.00000000E+00  0.00000000E+00
  1.00000000E+00  0.00000000E+00  0.00000000E+00  0.00000000E+00  1.00000000E+00
  0.00000000E+00  0.00000000E+00  0.00000000E+00  1.00000000E+00  0.00000000E+00
  0.00000000E+00  0.00000000E+00  1.00000000E+00  0.00000000E+00  0.00000000E+00
  0.00000000E+00  1.00000000E+00  0.00000000E+00  0.00000000E+00  0.00000000E+00
  1.00000000E+00  0.00000000E+00  0.00000000E+00  0.00000000E+00  1.00000000E+00
  0.00000000E+00  0.00000000E+00  0.00000000E+00  1.00000000E+00  0.00000000E+00
  0.00000000E+00  0.00000000E+00  1.00000000E+00  0.00000000E+00  0.00000000E+00
  0.00000000E+00  1.00000000E+00  0.00000000E+00  0.00000000E+00  0.00000000E+00
  1.00000000E+00  0.00000000E+00  0.00000000E+00  0.00000000E+00
Virial Ratio                               R      2.000615102940694E+00
SCF Energy                                 R     -6.328726537068599E+02
MP2 Energy                                 R     -6.337932745207500E+02
Total Energy                               R     -6.337932745207500E+02
Post-SCF wavefunction norm                 R      1.627271761792390E+00
RMS Force                                  R      3.635185592127654E-07
RMS Density                                R      5.954963452407126E-10
External E-field                           R   N=          35
  0.00000000E+00  0.00000000E+00  0.00000000E+00  0.00000000E+00  0.00000000E+00
  0.00000000E+00  0.00000000E+00  0.00000000E+00  0.00000000E+00  0.00000000E+00
  0.00000000E+00  0.00000000E+00  0.00000000E+00  0.00000000E+00  0.00000000E+00
  0.00000000E+00  0.00000000E+00  0.00000000E+00  0.00000000E+00  0.00000000E+00
  0.00000000E+00  0.00000000E+00  0.00000000E+00  0.00000000E+00  0.00000000E+00
  0.00000000E+00  0.00000000E+00  0.00000000E+00  0.00000000E+00  0.00000000E+00
  0.00000000E+00  0.00000000E+00  0.00000000E+00  0.00000000E+00  0.00000000E+00
IOpCl                                      I                0
IROHF                                      I                0
Alpha Orbital Energies                     R   N=         137
 -9.19185082E+01 -1.12582916E+01 -1.12582805E+01 -1.12209721E+01 -1.12209695E+01
 -1.12205749E+01 -1.12205739E+01 -8.92927347E+00 -6.61217379E+00 -6.61071094E+00
 -6.60881027E+00 -1.10913376E+00 -1.06564442E+00 -9.39034535E-01 -9.35234132E-01
 -9.20743920E-01 -8.01416718E-01 -7.45605425E-01 -6.45024111E-01 -6.28273558E-01
 -6.03875022E-01 -5.81794514E-01 -5.62416857E-01 -5.56960717E-01 -5.41961719E-01
 -5.41359034E-01 -4.97544515E-01 -4.94319218E-01 -4.94058093E-01 -4.83583003E-01
 -4.39012264E-01 -4.08459097E-01 -3.29167070E-01  1.97898395E-01  2.14825359E-01
  2.44775879E-01  2.64788323E-01  2.79387816E-01  2.80739753E-01  2.96511723E-01
  3.01657890E-01  3.04492801E-01  3.18948168E-01  3.21391483E-01  3.27982886E-01
  3.47903539E-01  3.58132269E-01  3.61117338E-01  3.79626818E-01  3.91273549E-01
  4.06855372E-01  4.15144491E-01  4.37292037E-01  5.59293826E-01  6.10076294E-01
  6.14600533E-01  6.45506901E-01  6.62502229E-01  6.98931240E-01  6.99043695E-01
  7.38760198E-01  7.50412883E-01  7.86519065E-01  8.25684123E-01  8.53025331E-01
  8.71401613E-01  9.19297746E-01  9.34018592E-01  9.55965375E-01  9.81309458E-01
  9.89822137E-01  1.01007194E+00  1.04163965E+00  1.04455474E+00  1.12483490E+00
  1.13699619E+00  1.14317526E+00  1.15952225E+00  1.16918527E+00  1.17525073E+00
  1.17792962E+00  1.17868708E+00  1.18595596E+00  1.19857097E+00  1.20818609E+00
  1.21803027E+00  1.23298472E+00  1.24104046E+00  1.25427007E+00  1.27690361E+00
  1.28423606E+00  1.30727667E+00  1.31321884E+00  1.33951423E+00  1.38807502E+00
  1.45322239E+00  1.67691845E+00  1.70799369E+00  1.73826622E+00  1.75605455E+00
  1.78821100E+00  1.82251196E+00  1.84069399E+00  1.89305331E+00  2.07718465E+00
  2.08836679E+00  2.21531481E+00  2.21543362E+00  2.23554810E+00  2.24076248E+00
  2.30737188E+00  2.31593210E+00  2.36244841E+00  2.37860256E+00  2.41075044E+00
  2.41793687E+00  2.56031734E+00  2.56799263E+00  2.58531504E+00  2.60022059E+00
  2.60642959E+00  2.62635917E+00  2.72721105E+00  2.73806267E+00  2.76474153E+00
  2.80311983E+00  2.89205562E+00  2.93164641E+00  3.03633774E+00  3.06369075E+00
  4.38212002E+00  4.58517754E+00  4.59945629E+00  4.69943602E+00  4.72040778E+00
  4.89821467E+00  4.92275598E+00
Alpha MO coefficients                      R   N=       18769
  9.96251848E-01  1.42449095E-02 -2.85845398E-11 -9.43156311E-05 -1.41016256E-11
 -2.00703656E-02 -7.02661288E-11  1.82498937E-04  7.16301747E-11  2.80254468E-03
  7.18053378E-11 -2.71267463E-04 -5.33918768E-10  6.84817946E-03  6.87475005E-03
  6.87081896E-03  1.49445631E-10  1.15903563E-05  1.00646620E-10 -1.74120101E-05
 -1.67560889E-05 -6.16521771E-05  3.90647532E-05 -1.24648119E-06  4.60330129E-04
  9.24410212E-05  1.90530357E-05 -1.72378195E-04 -4.72002779E-05 -2.81809741E-05
 -2.43751872E-05  1.61510439E-05  5.32986047E-06  1.67197529E-05 -1.74118955E-05
 -1.67548885E-05  6.16520659E-05  3.90647194E-05  1.24644250E-06  4.60330678E-04
 -9.24417549E-05  1.90527456E-05  1.72378564E-04 -4.72013136E-05 -2.81816592E-05
 -2.43752727E-05 -1.61518864E-05  5.32956500E-06 -1.67200061E-05  6.73833729E-06
  6.02997990E-05 -9.80909263E-06 -8.99986267E-06 -1.64029614E-05 -3.09928181E-04
  1.78315045E-04 -2.09956379E-04 -9.62133456E-05  2.50987750E-07 -2.57544724E-05
 -2.21334400E-06  5.76789696E-06  1.46662191E-05 -1.49641121E-05 -6.01589383E-06
  3.13589308E-06  2.43325170E-05  2.64753300E-06  4.58863258E-06 -3.08418198E-05