76080                                                                   
Freq      RMP2-FC                                                     6-31G(d)            
Number of atoms                            I               26
Info1-9                                    I   N=           9
          38          36        1002           0           0         100
           6           2           1
Charge                                     I                0
Multiplicity                               I                1
Number of electrons                        I              104
Number of alpha electrons                  I               52
Number of beta electrons                   I               52
Number of basis functions                  I              247
Number of independent functions            I              247
Number of point charges in /Mol/           I                0
Number of translation vectors              I                0
Atomic numbers                             I   N=          26
           8           7           6           6           6           6
           6           6           6           6           6           6
           6           6           6           1           1           1
           1           1           1           1           1           1
           1           1
Nuclear charges                            R   N=          26
  8.00000000E+00  7.00000000E+00  6.00000000E+00  6.00000000E+00  6.00000000E+00
  6.00000000E+00  6.00000000E+00  6.00000000E+00  6.00000000E+00  6.00000000E+00
  6.00000000E+00  6.00000000E+00  6.00000000E+00  6.00000000E+00  6.00000000E+00
  1.00000000E+00  1.00000000E+00  1.00000000E+00  1.00000000E+00  1.00000000E+00
  1.00000000E+00  1.00000000E+00  1.00000000E+00  1.00000000E+00  1.00000000E+00
  1.00000000E+00
Current cartesian coordinates              R   N=          78
 -7.89044251E-02  4.13060749E+00 -5.80897217E-01  4.68763932E+00  3.65300621E+00
  1.41738549E+00  2.10908462E+00  1.96942820E-01 -2.67292367E-01 -2.72438661E+00
  5.79968377E-01 -7.33327582E-02 -1.90134111E-01  1.79835977E+00 -3.26559807E-01
  4.47545719E+00  1.21599657E+00  4.80735648E-01  1.99197579E+00 -2.30564424E+00
 -1.16329609E+00  6.59159215E+00 -3.93403774E-01  4.87268111E-01 -3.12920829E+00
 -1.49698602E+00  1.52419358E+00 -4.77136341E+00  1.68312026E+00 -1.34352414E+00
  4.12184594E+00 -3.83967193E+00 -1.22187988E+00  6.43131067E+00 -2.86464989E+00
 -3.84137561E-01 -5.56350642E+00 -2.46626552E+00  1.82337056E+00 -7.18938013E+00
  6.79013240E-01 -1.07040210E+00 -7.59104239E+00 -1.39689764E+00  5.14540217E-01
  1.93587533E-01 -3.03335303E+00 -1.83551335E+00  8.40238879E+00  3.57999811E-01
  1.11311196E+00 -1.55529816E+00 -2.31358184E+00  2.56093533E+00 -4.43129098E+00
  3.32537471E+00 -2.52940955E+00  3.99715617E+00 -5.75860148E+00 -1.94132046E+00
  8.11604808E+00 -4.04259885E+00 -3.92122449E-01 -5.87880766E+00 -4.05877784E+00
  3.08321576E+00 -8.76800245E+00  1.52059692E+00 -2.08150164E+00 -9.48184819E+00
 -2.17009536E+00  7.38369911E-01  3.37956476E+00  4.86743607E+00  7.16644442E-01
  6.47079225E+00  4.35040530E+00  1.41496890E+00
Force Field                                I                0
Int Atom Types                             I   N=          26
           0           0           0           0           0           0
           0           0           0           0           0           0
           0           0           0           0           0           0
           0           0           0           0           0           0
           0           0
MM charges                                 R   N=          26
  0.00000000E+00  0.00000000E+00  0.00000000E+00  0.00000000E+00  0.00000000E+00
  0.00000000E+00  0.00000000E+00  0.00000000E+00  0.00000000E+00  0.00000000E+00
  0.00000000E+00  0.00000000E+00  0.00000000E+00  0.00000000E+00  0.00000000E+00
  0.00000000E+00  0.00000000E+00  0.00000000E+00  0.00000000E+00  0.00000000E+00
  0.00000000E+00  0.00000000E+00  0.00000000E+00  0.00000000E+00  0.00000000E+00
  0.00000000E+00
Integer atomic weights                     I   N=          26
          16          14          12          12          12          12
          12          12          12          12          12          12
          12          12          12           1           1           1
           1           1           1           1           1           1
           1           1
Real atomic weights                        R   N=          26
  1.59949146E+01  1.40030740E+01  1.20000000E+01  1.20000000E+01  1.20000000E+01
  1.20000000E+01  1.20000000E+01  1.20000000E+01  1.20000000E+01  1.20000000E+01
  1.20000000E+01  1.20000000E+01  1.20000000E+01  1.20000000E+01  1.20000000E+01
  1.00782504E+00  1.00782504E+00  1.00782504E+00  1.00782504E+00  1.00782504E+00
  1.00782504E+00  1.00782504E+00  1.00782504E+00  1.00782504E+00  1.00782504E+00
  1.00782504E+00
Atom fragment info                         I   N=          26
           0           0           0           0           0           0
           0           0           0           0           0           0
           0           0           0           0           0           0
           0           0           0           0           0           0
           0           0
Atom residue num                           I   N=          26
           0           0           0           0           0           0
           0           0           0           0           0           0
           0           0           0           0           0           0
           0           0           0           0           0           0
           0           0
Nuclear spins                              I   N=          26
           0           2           0           0           0           0
           0           0           0           0           0           0
           0           0           0           1           1           1
           1           1           1           1           1           1
           1           1
Nuclear ZEff                               R   N=          26
 -5.60000000E+00 -4.55000000E+00 -3.60000000E+00 -3.60000000E+00 -3.60000000E+00
 -3.60000000E+00 -3.60000000E+00 -3.60000000E+00 -3.60000000E+00 -3.60000000E+00
 -3.60000000E+00 -3.60000000E+00 -3.60000000E+00 -3.60000000E+00 -3.60000000E+00
 -1.00000000E+00 -1.00000000E+00 -1.00000000E+00 -1.00000000E+00 -1.00000000E+00
 -1.00000000E+00 -1.00000000E+00 -1.00000000E+00 -1.00000000E+00 -1.00000000E+00
 -1.00000000E+00
Nuclear QMom                               R   N=          26
  0.00000000E+00  2.04400000E+00  0.00000000E+00  0.00000000E+00  0.00000000E+00
  0.00000000E+00  0.00000000E+00  0.00000000E+00  0.00000000E+00  0.00000000E+00
  0.00000000E+00  0.00000000E+00  0.00000000E+00  0.00000000E+00  0.00000000E+00
  0.00000000E+00  0.00000000E+00  0.00000000E+00  0.00000000E+00  0.00000000E+00
  0.00000000E+00  0.00000000E+00  0.00000000E+00  0.00000000E+00  0.00000000E+00
  0.00000000E+00
Nuclear GFac                               R   N=          26
  0.00000000E+00  4.03761000E-01  0.00000000E+00  0.00000000E+00  0.00000000E+00
  0.00000000E+00  0.00000000E+00  0.00000000E+00  0.00000000E+00  0.00000000E+00
  0.00000000E+00  0.00000000E+00  0.00000000E+00  0.00000000E+00  0.00000000E+00
  2.79284600E+00  2.79284600E+00  2.79284600E+00  2.79284600E+00  2.79284600E+00
  2.79284600E+00  2.79284600E+00  2.79284600E+00  2.79284600E+00  2.79284600E+00
  2.79284600E+00
MicOpt                                     I   N=          26
          -1          -1          -1          -1          -1          -1
          -1          -1          -1          -1          -1          -1
          -1          -1          -1          -1          -1          -1
          -1          -1          -1          -1          -1          -1
          -1          -1
Number of contracted shells                I               82
Number of primitive shells                 I              209
Pure/Cartesian d shells                    I                1
Pure/Cartesian f shells                    I                0
Highest angular momentum                   I                2
Largest degree of contraction              I                6
Shell types                                I   N=          82
           0          -1          -1           2           0          -1
          -1           2           0          -1          -1           2
           0          -1          -1           2           0          -1
          -1           2           0          -1          -1           2
           0          -1          -1           2           0          -1
          -1           2           0          -1          -1           2
           0          -1          -1           2           0          -1
          -1           2           0          -1          -1           2
           0          -1          -1           2           0          -1
          -1           2           0          -1          -1           2
           0           0           0           0           0           0
           0           0           0           0           0           0
           0           0           0           0           0           0
           0           0           0           0
Number of primitives per shell             I   N=          82
           6           3           1           1           6           3
           1           1           6           3           1           1
           6           3           1           1           6           3
           1           1           6           3           1           1
           6           3           1           1           6           3
           1           1           6           3           1           1
           6           3           1           1           6           3
           1           1           6           3           1           1
           6           3           1           1           6           3
           1           1           6           3           1           1
           3           1           3           1           3           1
           3           1           3           1           3           1
           3           1           3           1           3           1
           3           1           3           1
Shell to atom map                          I   N=          82
           1           1           1           1           2           2
           2           2           3           3           3           3
           4           4           4           4           5           5
           5           5           6           6           6           6
           7           7           7           7           8           8
           8           8           9           9           9           9
          10          10          10          10          11          11
          11          11          12          12          12          12
          13          13          13          13          14          14
          14          14          15          15          15          15
          16          16          17          17          18          18
          19          19          20          20          21          21
          22          22          23          23          24          24
          25          25          26          26
Primitive exponents                        R   N=         209
  5.48467166E+03  8.25234946E+02  1.88046958E+02  5.29645000E+01  1.68975704E+01
  5.79963534E+00  1.55396162E+01  3.59993359E+00  1.01376175E+00  2.70005823E-01
  8.00000000E-01  4.17351146E+03  6.27457911E+02  1.42902093E+02  4.02343293E+01
  1.28202129E+01  4.39043701E+00  1.16263619E+01  2.71627981E+00  7.72218397E-01
  2.12031498E-01  8.00000000E-01  3.04752488E+03  4.57369518E+02  1.03948685E+02
  2.92101553E+01  9.28666296E+00  3.16392696E+00  7.86827235E+00  1.88128854E+00
  5.44249258E-01  1.68714478E-01  8.00000000E-01  3.04752488E+03  4.57369518E+02
  1.03948685E+02  2.92101553E+01  9.28666296E+00  3.16392696E+00  7.86827235E+00
  1.88128854E+00  5.44249258E-01  1.68714478E-01  8.00000000E-01  3.04752488E+03
  4.57369518E+02  1.03948685E+02  2.92101553E+01  9.28666296E+00  3.16392696E+00
  7.86827235E+00  1.88128854E+00  5.44249258E-01  1.68714478E-01  8.00000000E-01
  3.04752488E+03  4.57369518E+02  1.03948685E+02  2.92101553E+01  9.28666296E+00
  3.16392696E+00  7.86827235E+00  1.88128854E+00  5.44249258E-01  1.68714478E-01
  8.00000000E-01  3.04752488E+03  4.57369518E+02  1.03948685E+02  2.92101553E+01
  9.28666296E+00  3.16392696E+00  7.86827235E+00  1.88128854E+00  5.44249258E-01
  1.68714478E-01  8.00000000E-01  3.04752488E+03  4.57369518E+02  1.03948685E+02
  2.92101553E+01  9.28666296E+00  3.16392696E+00  7.86827235E+00  1.88128854E+00
  5.44249258E-01  1.68714478E-01  8.00000000E-01  3.04752488E+03  4.57369518E+02
  1.03948685E+02  2.92101553E+01  9.28666296E+00  3.16392696E+00  7.86827235E+00
  1.88128854E+00  5.44249258E-01  1.68714478E-01  8.00000000E-01  3.04752488E+03
  4.57369518E+02  1.03948685E+02  2.92101553E+01  9.28666296E+00  3.16392696E+00
  7.86827235E+00  1.88128854E+00  5.44249258E-01  1.68714478E-01  8.00000000E-01
  3.04752488E+03  4.57369518E+02  1.03948685E+02  2.92101553E+01  9.28666296E+00
  3.16392696E+00  7.86827235E+00  1.88128854E+00  5.44249258E-01  1.68714478E-01
  8.00000000E-01  3.04752488E+03  4.57369518E+02  1.03948685E+02  2.92101553E+01
  9.28666296E+00  3.16392696E+00  7.86827235E+00  1.88128854E+00  5.44249258E-01
  1.68714478E-01  8.00000000E-01  3.04752488E+03  4.57369518E+02  1.03948685E+02
  2.92101553E+01  9.28666296E+00  3.16392696E+00  7.86827235E+00  1.88128854E+00
  5.44249258E-01  1.68714478E-01  8.00000000E-01  3.04752488E+03  4.57369518E+02
  1.03948685E+02  2.92101553E+01  9.28666296E+00  3.16392696E+00  7.86827235E+00
  1.88128854E+00  5.44249258E-01  1.68714478E-01  8.00000000E-01  3.04752488E+03
  4.57369518E+02  1.03948685E+02  2.92101553E+01  9.28666296E+00  3.16392696E+00
  7.86827235E+00  1.88128854E+00  5.44249258E-01  1.68714478E-01  8.00000000E-01
  1.87311370E+01  2.82539436E+00  6.40121692E-01  1.61277759E-01  1.87311370E+01
  2.82539436E+00  6.40121692E-01  1.61277759E-01  1.87311370E+01  2.82539436E+00
  6.40121692E-01  1.61277759E-01  1.87311370E+01  2.82539436E+00  6.40121692E-01
  1.61277759E-01  1.87311370E+01  2.82539436E+00  6.40121692E-01  1.61277759E-01
  1.87311370E+01  2.82539436E+00  6.40121692E-01  1.61277759E-01  1.87311370E+01
  2.82539436E+00  6.40121692E-01  1.61277759E-01  1.87311370E+01  2.82539436E+00
  6.40121692E-01  1.61277759E-01  1.87311370E+01  2.82539436E+00  6.40121692E-01
  1.61277759E-01  1.87311370E+01  2.82539436E+00  6.40121692E-01  1.61277759E-01
  1.87311370E+01  2.82539436E+00  6.40121692E-01  1.61277759E-01
Contraction coefficients                   R   N=         209
  1.83107443E-03  1.39501722E-02  6.84450781E-02  2.32714336E-01  4.70192898E-01
  3.58520853E-01 -1.10777550E-01 -1.48026263E-01  1.13076702E+00  1.00000000E+00
  1.00000000E+00  1.83477216E-03  1.39946270E-02  6.85865518E-02  2.32240873E-01
  4.69069948E-01  3.60455199E-01 -1.14961182E-01 -1.69117479E-01  1.14585195E+00
  1.00000000E+00  1.00000000E+00  1.83473713E-03  1.40373228E-02  6.88426223E-02
  2.32184443E-01  4.67941348E-01  3.62311985E-01 -1.19332420E-01 -1.60854152E-01
  1.14345644E+00  1.00000000E+00  1.00000000E+00  1.83473713E-03  1.40373228E-02
  6.88426223E-02  2.32184443E-01  4.67941348E-01  3.62311985E-01 -1.19332420E-01
 -1.60854152E-01  1.14345644E+00  1.00000000E+00  1.00000000E+00  1.83473713E-03
  1.40373228E-02  6.88426223E-02  2.32184443E-01  4.67941348E-01  3.62311985E-01
 -1.19332420E-01 -1.60854152E-01  1.14345644E+00  1.00000000E+00  1.00000000E+00
  1.83473713E-03  1.40373228E-02  6.88426223E-02  2.32184443E-01  4.67941348E-01
  3.62311985E-01 -1.19332420E-01 -1.60854152E-01  1.14345644E+00  1.00000000E+00
  1.00000000E+00  1.83473713E-03  1.40373228E-02  6.88426223E-02  2.32184443E-01
  4.67941348E-01  3.62311985E-01 -1.19332420E-01 -1.60854152E-01  1.14345644E+00
  1.00000000E+00  1.00000000E+00  1.83473713E-03  1.40373228E-02  6.88426223E-02
  2.32184443E-01  4.67941348E-01  3.62311985E-01 -1.19332420E-01 -1.60854152E-01
  1.14345644E+00  1.00000000E+00  1.00000000E+00  1.83473713E-03  1.40373228E-02
  6.88426223E-02  2.32184443E-01  4.67941348E-01  3.62311985E-01 -1.19332420E-01
 -1.60854152E-01  1.14345644E+00  1.00000000E+00  1.00000000E+00  1.83473713E-03
  1.40373228E-02  6.88426223E-02  2.32184443E-01  4.67941348E-01  3.62311985E-01
 -1.19332420E-01 -1.60854152E-01  1.14345644E+00  1.00000000E+00  1.00000000E+00
  1.83473713E-03  1.40373228E-02  6.88426223E-02  2.32184443E-01  4.67941348E-01
  3.62311985E-01 -1.19332420E-01 -1.60854152E-01  1.14345644E+00  1.00000000E+00
  1.00000000E+00  1.83473713E-03  1.40373228E-02  6.88426223E-02  2.32184443E-01
  4.67941348E-01  3.62311985E-01 -1.19332420E-01 -1.60854152E-01  1.14345644E+00
  1.00000000E+00  1.00000000E+00  1.83473713E-03  1.40373228E-02  6.88426223E-02
  2.32184443E-01  4.67941348E-01  3.62311985E-01 -1.19332420E-01 -1.60854152E-01
  1.14345644E+00  1.00000000E+00  1.00000000E+00  1.83473713E-03  1.40373228E-02
  6.88426223E-02  2.32184443E-01  4.67941348E-01  3.62311985E-01 -1.19332420E-01
 -1.60854152E-01  1.14345644E+00  1.00000000E+00  1.00000000E+00  1.83473713E-03
  1.40373228E-02  6.88426223E-02  2.32184443E-01  4.67941348E-01  3.62311985E-01
 -1.19332420E-01 -1.60854152E-01  1.14345644E+00  1.00000000E+00  1.00000000E+00
  3.34946043E-02  2.34726953E-01  8.13757326E-01  1.00000000E+00  3.34946043E-02
  2.34726953E-01  8.13757326E-01  1.00000000E+00  3.34946043E-02  2.34726953E-01
  8.13757326E-01  1.00000000E+00  3.34946043E-02  2.34726953E-01  8.13757326E-01
  1.00000000E+00  3.34946043E-02  2.34726953E-01  8.13757326E-01  1.00000000E+00
  3.34946043E-02  2.34726953E-01  8.13757326E-01  1.00000000E+00  3.34946043E-02
  2.34726953E-01  8.13757326E-01  1.00000000E+00  3.34946043E-02  2.34726953E-01
  8.13757326E-01  1.00000000E+00  3.34946043E-02  2.34726953E-01  8.13757326E-01
  1.00000000E+00  3.34946043E-02  2.34726953E-01  8.13757326E-01  1.00000000E+00
  3.34946043E-02  2.34726953E-01  8.13757326E-01  1.00000000E+00
P(S=P) Contraction coefficients            R   N=         209
  0.00000000E+00  0.00000000E+00  0.00000000E+00  0.00000000E+00  0.00000000E+00
  0.00000000E+00  7.08742682E-02  3.39752839E-01  7.27158577E-01  1.00000000E+00
  0.00000000E+00  0.00000000E+00  0.00000000E+00  0.00000000E+00  0.00000000E+00
  0.00000000E+00  0.00000000E+00  6.75797439E-02  3.23907296E-01  7.40895140E-01
  1.00000000E+00  0.00000000E+00  0.00000000E+00  0.00000000E+00  0.00000000E+00
  0.00000000E+00  0.00000000E+00  0.00000000E+00  6.89990666E-02  3.16423961E-01
  7.44308291E-01  1.00000000E+00  0.00000000E+00  0.00000000E+00  0.00000000E+00
  0.00000000E+00  0.00000000E+00  0.00000000E+00  0.00000000E+00  6.89990666E-02
  3.16423961E-01  7.44308291E-01  1.00000000E+00  0.00000000E+00  0.00000000E+00
  0.00000000E+00  0.00000000E+00  0.00000000E+00  0.00000000E+00  0.00000000E+00
  6.89990666E-02  3.16423961E-01  7.44308291E-01  1.00000000E+00  0.00000000E+00
  0.00000000E+00  0.00000000E+00  0.00000000E+00  0.00000000E+00  0.00000000E+00
  0.00000000E+00  6.89990666E-02  3.16423961E-01  7.44308291E-01  1.00000000E+00
  0.00000000E+00  0.00000000E+00  0.00000000E+00  0.00000000E+00  0.00000000E+00
  0.00000000E+00  0.00000000E+00  6.89990666E-02  3.16423961E-01  7.44308291E-01
  1.00000000E+00  0.00000000E+00  0.00000000E+00  0.00000000E+00  0.00000000E+00
  0.00000000E+00  0.00000000E+00  0.00000000E+00  6.89990666E-02  3.16423961E-01
  7.44308291E-01  1.00000000E+00  0.00000000E+00  0.00000000E+00  0.00000000E+00
  0.00000000E+00  0.00000000E+00  0.00000000E+00  0.00000000E+00  6.89990666E-02
  3.16423961E-01  7.44308291E-01  1.00000000E+00  0.00000000E+00  0.00000000E+00
  0.00000000E+00  0.00000000E+00  0.00000000E+00  0.00000000E+00  0.00000000E+00
  6.89990666E-02  3.16423961E-01  7.44308291E-01  1.00000000E+00  0.00000000E+00
  0.00000000E+00  0.00000000E+00  0.00000000E+00  0.00000000E+00  0.00000000E+00
  0.00000000E+00  6.89990666E-02  3.16423961E-01  7.44308291E-01  1.00000000E+00
  0.00000000E+00  0.00000000E+00  0.00000000E+00  0.00000000E+00  0.00000000E+00
  0.00000000E+00  0.00000000E+00  6.89990666E-02  3.16423961E-01  7.44308291E-01
  1.00000000E+00  0.00000000E+00  0.00000000E+00  0.00000000E+00  0.00000000E+00
  0.00000000E+00  0.00000000E+00  0.00000000E+00  6.89990666E-02  3.16423961E-01
  7.44308291E-01  1.00000000E+00  0.00000000E+00  0.00000000E+00  0.00000000E+00
  0.00000000E+00  0.00000000E+00  0.00000000E+00  0.00000000E+00  6.89990666E-02
  3.16423961E-01  7.44308291E-01  1.00000000E+00  0.00000000E+00  0.00000000E+00
  0.00000000E+00  0.00000000E+00  0.00000000E+00  0.00000000E+00  0.00000000E+00
  6.89990666E-02  3.16423961E-01  7.44308291E-01  1.00000000E+00  0.00000000E+00
  0.00000000E+00  0.00000000E+00  0.00000000E+00  0.00000000E+00  0.00000000E+00
  0.00000000E+00  0.00000000E+00  0.00000000E+00  0.00000000E+00  0.00000000E+00
  0.00000000E+00  0.00000000E+00  0.00000000E+00  0.00000000E+00  0.00000000E+00
  0.00000000E+00  0.00000000E+00  0.00000000E+00  0.00000000E+00  0.00000000E+00
  0.00000000E+00  0.00000000E+00  0.00000000E+00  0.00000000E+00  0.00000000E+00
  0.00000000E+00  0.00000000E+00  0.00000000E+00  0.00000000E+00  0.00000000E+00
  0.00000000E+00  0.00000000E+00  0.00000000E+00  0.00000000E+00  0.00000000E+00
  0.00000000E+00  0.00000000E+00  0.00000000E+00  0.00000000E+00  0.00000000E+00
  0.00000000E+00  0.00000000E+00  0.00000000E+00  0.00000000E+00
Coordinates of each shell                  R   N=         246
 -7.89044251E-02  4.13060749E+00 -5.80897217E-01 -7.89044251E-02  4.13060749E+00
 -5.80897217E-01 -7.89044251E-02  4.13060749E+00 -5.80897217E-01 -7.89044251E-02
  4.13060749E+00 -5.80897217E-01  4.68763932E+00  3.65300621E+00  1.41738549E+00
  4.68763932E+00  3.65300621E+00  1.41738549E+00  4.68763932E+00  3.65300621E+00
  1.41738549E+00  4.68763932E+00  3.65300621E+00  1.41738549E+00  2.10908462E+00
  1.96942820E-01 -2.67292367E-01  2.10908462E+00  1.96942820E-01 -2.67292367E-01
  2.10908462E+00  1.96942820E-01 -2.67292367E-01  2.10908462E+00  1.96942820E-01
 -2.67292367E-01 -2.72438661E+00  5.79968377E-01 -7.33327582E-02 -2.72438661E+00
  5.79968377E-01 -7.33327582E-02 -2.72438661E+00  5.79968377E-01 -7.33327582E-02
 -2.72438661E+00  5.79968377E-01 -7.33327582E-02 -1.90134111E-01  1.79835977E+00
 -3.26559807E-01 -1.90134111E-01  1.79835977E+00 -3.26559807E-01 -1.90134111E-01
  1.79835977E+00 -3.26559807E-01 -1.90134111E-01  1.79835977E+00 -3.26559807E-01
  4.47545719E+00  1.21599657E+00  4.80735648E-01  4.47545719E+00  1.21599657E+00
  4.80735648E-01  4.47545719E+00  1.21599657E+00  4.80735648E-01  4.47545719E+00
  1.21599657E+00  4.80735648E-01  1.99197579E+00 -2.30564424E+00 -1.16329609E+00
  1.99197579E+00 -2.30564424E+00 -1.16329609E+00  1.99197579E+00 -2.30564424E+00
 -1.16329609E+00  1.99197579E+00 -2.30564424E+00 -1.16329609E+00  6.59159215E+00
 -3.93403774E-01  4.87268111E-01  6.59159215E+00 -3.93403774E-01  4.87268111E-01
  6.59159215E+00 -3.93403774E-01  4.87268111E-01  6.59159215E+00 -3.93403774E-01
  4.87268111E-01 -3.12920829E+00 -1.49698602E+00  1.52419358E+00 -3.12920829E+00
 -1.49698602E+00  1.52419358E+00 -3.12920829E+00 -1.49698602E+00  1.52419358E+00
 -3.12920829E+00 -1.49698602E+00  1.52419358E+00 -4.77136341E+00  1.68312026E+00
 -1.34352414E+00 -4.77136341E+00  1.68312026E+00 -1.34352414E+00 -4.77136341E+00
  1.68312026E+00 -1.34352414E+00 -4.77136341E+00  1.68312026E+00 -1.34352414E+00
  4.12184594E+00 -3.83967193E+00 -1.22187988E+00  4.12184594E+00 -3.83967193E+00
 -1.22187988E+00  4.12184594E+00 -3.83967193E+00 -1.22187988E+00  4.12184594E+00
 -3.83967193E+00 -1.22187988E+00  6.43131067E+00 -2.86464989E+00 -3.84137561E-01
  6.43131067E+00 -2.86464989E+00 -3.84137561E-01  6.43131067E+00 -2.86464989E+00
 -3.84137561E-01  6.43131067E+00 -2.86464989E+00 -3.84137561E-01 -5.56350642E+00
 -2.46626552E+00  1.82337056E+00 -5.56350642E+00 -2.46626552E+00  1.82337056E+00
 -5.56350642E+00 -2.46626552E+00  1.82337056E+00 -5.56350642E+00 -2.46626552E+00
  1.82337056E+00 -7.18938013E+00  6.79013240E-01 -1.07040210E+00 -7.18938013E+00
  6.79013240E-01 -1.07040210E+00 -7.18938013E+00  6.79013240E-01 -1.07040210E+00
 -7.18938013E+00  6.79013240E-01 -1.07040210E+00 -7.59104239E+00 -1.39689764E+00
  5.14540217E-01 -7.59104239E+00 -1.39689764E+00  5.14540217E-01 -7.59104239E+00
 -1.39689764E+00  5.14540217E-01 -7.59104239E+00 -1.39689764E+00  5.14540217E-01
  1.93587533E-01 -3.03335303E+00 -1.83551335E+00  1.93587533E-01 -3.03335303E+00
 -1.83551335E+00  8.40238879E+00  3.57999811E-01  1.11311196E+00  8.40238879E+00
  3.57999811E-01  1.11311196E+00 -1.55529816E+00 -2.31358184E+00  2.56093533E+00
 -1.55529816E+00 -2.31358184E+00  2.56093533E+00 -4.43129098E+00  3.32537471E+00
 -2.52940955E+00 -4.43129098E+00  3.32537471E+00 -2.52940955E+00  3.99715617E+00
 -5.75860148E+00 -1.94132046E+00  3.99715617E+00 -5.75860148E+00 -1.94132046E+00
  8.11604808E+00 -4.04259885E+00 -3.92122449E-01  8.11604808E+00 -4.04259885E+00
 -3.92122449E-01 -5.87880766E+00 -4.05877784E+00  3.08321576E+00 -5.87880766E+00
 -4.05877784E+00  3.08321576E+00 -8.76800245E+00  1.52059692E+00 -2.08150164E+00
 -8.76800245E+00  1.52059692E+00 -2.08150164E+00 -9.48184819E+00 -2.17009536E+00
  7.38369911E-01 -9.48184819E+00 -2.17009536E+00  7.38369911E-01  3.37956476E+00
  4.86743607E+00  7.16644442E-01  3.37956476E+00  4.86743607E+00  7.16644442E-01
  6.47079225E+00  4.35040530E+00  1.41496890E+00  6.47079225E+00  4.35040530E+00
  1.41496890E+00
Constraint Structure                       R   N=          78
 -7.89044251E-02  4.13060749E+00 -5.80897217E-01  4.68763932E+00  3.65300621E+00
  1.41738549E+00  2.10908462E+00  1.96942820E-01 -2.67292367E-01 -2.72438661E+00
  5.79968377E-01 -7.33327582E-02 -1.90134111E-01  1.79835977E+00 -3.26559807E-01
  4.47545719E+00  1.21599657E+00  4.80735648E-01  1.99197579E+00 -2.30564424E+00
 -1.16329609E+00  6.59159215E+00 -3.93403774E-01  4.87268111E-01 -3.12920829E+00
 -1.49698602E+00  1.52419358E+00 -4.77136341E+00  1.68312026E+00 -1.34352414E+00
  4.12184594E+00 -3.83967193E+00 -1.22187988E+00  6.43131067E+00 -2.86464989E+00
 -3.84137561E-01 -5.56350642E+00 -2.46626552E+00  1.82337056E+00 -7.18938013E+00
  6.79013240E-01 -1.07040210E+00 -7.59104239E+00 -1.39689764E+00  5.14540217E-01
  1.93587533E-01 -3.03335303E+00 -1.83551335E+00  8.40238879E+00  3.57999811E-01
  1.11311196E+00 -1.55529816E+00 -2.31358184E+00  2.56093533E+00 -4.43129098E+00
  3.32537471E+00 -2.52940955E+00  3.99715617E+00 -5.75860148E+00 -1.94132046E+00
  8.11604808E+00 -4.04259885E+00 -3.92122449E-01 -5.87880766E+00 -4.05877784E+00
  3.08321576E+00 -8.76800245E+00  1.52059692E+00 -2.08150164E+00 -9.48184819E+00
 -2.17009536E+00  7.38369911E-01  3.37956476E+00  4.86743607E+00  7.16644442E-01
  6.47079225E+00  4.35040530E+00  1.41496890E+00
Num ILSW                                   I              100
ILSW                                       I   N=         100
           0           1           0           0           2           0
           0           0           0           0           0          -1
           0           0           0           0           0           0
           0           0           0           0           1           0
           1           0           0           0           0           0
           0           0      100000           0          -1           0
           0           0           0           0           0           0
           0           0           0           1           1           0
           0           0           1           0           0           0
           0           0           4          40           0           0
           0           0           0           0           0           0
           0           0           0           0           0           0
           0           0           0           0           0           0
           0           0           0           0           0           0
           0           0           0           0           0           0
           0           0           0           0           0           0
           0           0           0           0
Num RLSW                                   I               40
RLSW                                       R   N=          40
  1.00000000E+00  1.00000000E+00  1.00000000E+00  1.00000000E+00  1.00000000E+00
  0.00000000E+00  0.00000000E+00  1.00000000E+00  0.00000000E+00  0.00000000E+00
  0.00000000E+00  0.00000000E+00  1.00000000E+00  0.00000000E+00  0.00000000E+00
  0.00000000E+00  0.00000000E+00  1.00000000E+00  0.00000000E+00  0.00000000E+00
  0.00000000E+00  0.00000000E+00  1.00000000E+00  0.00000000E+00  0.00000000E+00
  0.00000000E+00  0.00000000E+00  1.00000000E+00  0.00000000E+00  0.00000000E+00
  0.00000000E+00  0.00000000E+00  0.00000000E+00  0.00000000E+00  0.00000000E+00
  0.00000000E+00  0.00000000E+00  0.00000000E+00  1.00000000E+00  1.00000000E+00
MxBond                                     I                3
NBond                                      I   N=          26
           1           3           3           3           3           3
           3           3           3           3           3           3
           3           3           3           1           1           1
           1           1           1           1           1           1
           1           1
IBond                                      I   N=          78
           5           0           0           6          25          26
           5           6           7           5           9          10