143_Benzaldehyde Gaussian SP Calculation on g2-node38.bme.utexas.edu    
Freq      RMP2-FC                                                     6-31G(d)            
Number of atoms                            I               14
Info1-9                                    I   N=           9
          25          24        1002           0           0         100
           6           2           1
Charge                                     I                0
Multiplicity                               I                1
Number of electrons                        I               56
Number of alpha electrons                  I               28
Number of beta electrons                   I               28
Number of basis functions                  I              132
Number of independent functions            I              132
Number of point charges in /Mol/           I                0
Number of translation vectors              I                0
Atomic numbers                             I   N=          14
           8           6           6           6           6           6
           6           6           1           1           1           1
           1           1
Nuclear charges                            R   N=          14
  8.00000000E+00  6.00000000E+00  6.00000000E+00  6.00000000E+00  6.00000000E+00
  6.00000000E+00  6.00000000E+00  6.00000000E+00  1.00000000E+00  1.00000000E+00
  1.00000000E+00  1.00000000E+00  1.00000000E+00  1.00000000E+00
Current cartesian coordinates              R   N=          42
  5.37503981E+00 -7.56439671E-01 -1.81580521E-04  1.00214620E+00  4.15447197E-01
 -4.74951338E-05 -6.89774209E-01  2.44810241E+00  1.32572275E-05  1.01380544E-01
 -2.07485744E+00 -2.85863005E-06 -3.28682195E+00  1.99423269E+00  1.24208007E-04
 -2.49127278E+00 -2.51862867E+00  1.04870106E-04 -4.18636020E+00 -4.87525629E-01
  1.67598413E-04  3.75540448E+00  9.03786663E-01 -1.60651030E-04  2.90237667E-02
  4.37703604E+00 -2.37212826E-05  1.45894515E+00 -3.61664966E+00 -4.99774218E-05
 -4.60782504E+00  3.56755726E+00  1.73688828E-04 -3.20308695E+00 -4.44596941E+00
  1.37525161E-04 -6.21043347E+00 -8.42574826E-01  2.52630883E-04  4.30484552E+00
  2.92877457E+00 -2.31075757E-04
Force Field                                I                0
Int Atom Types                             I   N=          14
           0           0           0           0           0           0
           0           0           0           0           0           0
           0           0
MM charges                                 R   N=          14
  0.00000000E+00  0.00000000E+00  0.00000000E+00  0.00000000E+00  0.00000000E+00
  0.00000000E+00  0.00000000E+00  0.00000000E+00  0.00000000E+00  0.00000000E+00
  0.00000000E+00  0.00000000E+00  0.00000000E+00  0.00000000E+00
Integer atomic weights                     I   N=          14
          16          12          12          12          12          12
          12          12           1           1           1           1
           1           1
Real atomic weights                        R   N=          14
  1.59949146E+01  1.20000000E+01  1.20000000E+01  1.20000000E+01  1.20000000E+01
  1.20000000E+01  1.20000000E+01  1.20000000E+01  1.00782504E+00  1.00782504E+00
  1.00782504E+00  1.00782504E+00  1.00782504E+00  1.00782504E+00
Atom fragment info                         I   N=          14
           0           0           0           0           0           0
           0           0           0           0           0           0
           0           0
Atom residue num                           I   N=          14
           0           0           0           0           0           0
           0           0           0           0           0           0
           0           0
Nuclear spins                              I   N=          14
           0           0           0           0           0           0
           0           0           1           1           1           1
           1           1
Nuclear ZEff                               R   N=          14
 -5.60000000E+00 -3.60000000E+00 -3.60000000E+00 -3.60000000E+00 -3.60000000E+00
 -3.60000000E+00 -3.60000000E+00 -3.60000000E+00 -1.00000000E+00 -1.00000000E+00
 -1.00000000E+00 -1.00000000E+00 -1.00000000E+00 -1.00000000E+00
Nuclear QMom                               R   N=          14
  0.00000000E+00  0.00000000E+00  0.00000000E+00  0.00000000E+00  0.00000000E+00
  0.00000000E+00  0.00000000E+00  0.00000000E+00  0.00000000E+00  0.00000000E+00
  0.00000000E+00  0.00000000E+00  0.00000000E+00  0.00000000E+00
Nuclear GFac                               R   N=          14
  0.00000000E+00  0.00000000E+00  0.00000000E+00  0.00000000E+00  0.00000000E+00
  0.00000000E+00  0.00000000E+00  0.00000000E+00  2.79284600E+00  2.79284600E+00
  2.79284600E+00  2.79284600E+00  2.79284600E+00  2.79284600E+00
MicOpt                                     I   N=          14
          -1          -1          -1          -1          -1          -1
          -1          -1          -1          -1          -1          -1
          -1          -1
Number of contracted shells                I               44
Number of primitive shells                 I              112
Pure/Cartesian d shells                    I                1
Pure/Cartesian f shells                    I                0
Highest angular momentum                   I                2
Largest degree of contraction              I                6
Shell types                                I   N=          44
           0          -1          -1           2           0          -1
          -1           2           0          -1          -1           2
           0          -1          -1           2           0          -1
          -1           2           0          -1          -1           2
           0          -1          -1           2           0          -1
          -1           2           0           0           0           0
           0           0           0           0           0           0
           0           0
Number of primitives per shell             I   N=          44
           6           3           1           1           6           3
           1           1           6           3           1           1
           6           3           1           1           6           3
           1           1           6           3           1           1
           6           3           1           1           6           3
           1           1           3           1           3           1
           3           1           3           1           3           1
           3           1
Shell to atom map                          I   N=          44
           1           1           1           1           2           2
           2           2           3           3           3           3
           4           4           4           4           5           5
           5           5           6           6           6           6
           7           7           7           7           8           8
           8           8           9           9          10          10
          11          11          12          12          13          13
          14          14
Primitive exponents                        R   N=         112
  5.48467166E+03  8.25234946E+02  1.88046958E+02  5.29645000E+01  1.68975704E+01
  5.79963534E+00  1.55396162E+01  3.59993359E+00  1.01376175E+00  2.70005823E-01
  8.00000000E-01  3.04752488E+03  4.57369518E+02  1.03948685E+02  2.92101553E+01
  9.28666296E+00  3.16392696E+00  7.86827235E+00  1.88128854E+00  5.44249258E-01
  1.68714478E-01  8.00000000E-01  3.04752488E+03  4.57369518E+02  1.03948685E+02
  2.92101553E+01  9.28666296E+00  3.16392696E+00  7.86827235E+00  1.88128854E+00
  5.44249258E-01  1.68714478E-01  8.00000000E-01  3.04752488E+03  4.57369518E+02
  1.03948685E+02  2.92101553E+01  9.28666296E+00  3.16392696E+00  7.86827235E+00
  1.88128854E+00  5.44249258E-01  1.68714478E-01  8.00000000E-01  3.04752488E+03
  4.57369518E+02  1.03948685E+02  2.92101553E+01  9.28666296E+00  3.16392696E+00
  7.86827235E+00  1.88128854E+00  5.44249258E-01  1.68714478E-01  8.00000000E-01
  3.04752488E+03  4.57369518E+02  1.03948685E+02  2.92101553E+01  9.28666296E+00
  3.16392696E+00  7.86827235E+00  1.88128854E+00  5.44249258E-01  1.68714478E-01
  8.00000000E-01  3.04752488E+03  4.57369518E+02  1.03948685E+02  2.92101553E+01
  9.28666296E+00  3.16392696E+00  7.86827235E+00  1.88128854E+00  5.44249258E-01
  1.68714478E-01  8.00000000E-01  3.04752488E+03  4.57369518E+02  1.03948685E+02
  2.92101553E+01  9.28666296E+00  3.16392696E+00  7.86827235E+00  1.88128854E+00
  5.44249258E-01  1.68714478E-01  8.00000000E-01  1.87311370E+01  2.82539436E+00
  6.40121692E-01  1.61277759E-01  1.87311370E+01  2.82539436E+00  6.40121692E-01
  1.61277759E-01  1.87311370E+01  2.82539436E+00  6.40121692E-01  1.61277759E-01
  1.87311370E+01  2.82539436E+00  6.40121692E-01  1.61277759E-01  1.87311370E+01
  2.82539436E+00  6.40121692E-01  1.61277759E-01  1.87311370E+01  2.82539436E+00
  6.40121692E-01  1.61277759E-01
Contraction coefficients                   R   N=         112
  1.83107443E-03  1.39501722E-02  6.84450781E-02  2.32714336E-01  4.70192898E-01
  3.58520853E-01 -1.10777550E-01 -1.48026263E-01  1.13076702E+00  1.00000000E+00
  1.00000000E+00  1.83473713E-03  1.40373228E-02  6.88426223E-02  2.32184443E-01
  4.67941348E-01  3.62311985E-01 -1.19332420E-01 -1.60854152E-01  1.14345644E+00
  1.00000000E+00  1.00000000E+00  1.83473713E-03  1.40373228E-02  6.88426223E-02
  2.32184443E-01  4.67941348E-01  3.62311985E-01 -1.19332420E-01 -1.60854152E-01
  1.14345644E+00  1.00000000E+00  1.00000000E+00  1.83473713E-03  1.40373228E-02
  6.88426223E-02  2.32184443E-01  4.67941348E-01  3.62311985E-01 -1.19332420E-01
 -1.60854152E-01  1.14345644E+00  1.00000000E+00  1.00000000E+00  1.83473713E-03
  1.40373228E-02  6.88426223E-02  2.32184443E-01  4.67941348E-01  3.62311985E-01
 -1.19332420E-01 -1.60854152E-01  1.14345644E+00  1.00000000E+00  1.00000000E+00
  1.83473713E-03  1.40373228E-02  6.88426223E-02  2.32184443E-01  4.67941348E-01
  3.62311985E-01 -1.19332420E-01 -1.60854152E-01  1.14345644E+00  1.00000000E+00
  1.00000000E+00  1.83473713E-03  1.40373228E-02  6.88426223E-02  2.32184443E-01
  4.67941348E-01  3.62311985E-01 -1.19332420E-01 -1.60854152E-01  1.14345644E+00
  1.00000000E+00  1.00000000E+00  1.83473713E-03  1.40373228E-02  6.88426223E-02
  2.32184443E-01  4.67941348E-01  3.62311985E-01 -1.19332420E-01 -1.60854152E-01
  1.14345644E+00  1.00000000E+00  1.00000000E+00  3.34946043E-02  2.34726953E-01
  8.13757326E-01  1.00000000E+00  3.34946043E-02  2.34726953E-01  8.13757326E-01
  1.00000000E+00  3.34946043E-02  2.34726953E-01  8.13757326E-01  1.00000000E+00
  3.34946043E-02  2.34726953E-01  8.13757326E-01  1.00000000E+00  3.34946043E-02
  2.34726953E-01  8.13757326E-01  1.00000000E+00  3.34946043E-02  2.34726953E-01
  8.13757326E-01  1.00000000E+00
P(S=P) Contraction coefficients            R   N=         112
  0.00000000E+00  0.00000000E+00  0.00000000E+00  0.00000000E+00  0.00000000E+00
  0.00000000E+00  7.08742682E-02  3.39752839E-01  7.27158577E-01  1.00000000E+00
  0.00000000E+00  0.00000000E+00  0.00000000E+00  0.00000000E+00  0.00000000E+00
  0.00000000E+00  0.00000000E+00  6.89990666E-02  3.16423961E-01  7.44308291E-01
  1.00000000E+00  0.00000000E+00  0.00000000E+00  0.00000000E+00  0.00000000E+00
  0.00000000E+00  0.00000000E+00  0.00000000E+00  6.89990666E-02  3.16423961E-01
  7.44308291E-01  1.00000000E+00  0.00000000E+00  0.00000000E+00  0.00000000E+00
  0.00000000E+00  0.00000000E+00  0.00000000E+00  0.00000000E+00  6.89990666E-02
  3.16423961E-01  7.44308291E-01  1.00000000E+00  0.00000000E+00  0.00000000E+00
  0.00000000E+00  0.00000000E+00  0.00000000E+00  0.00000000E+00  0.00000000E+00
  6.89990666E-02  3.16423961E-01  7.44308291E-01  1.00000000E+00  0.00000000E+00
  0.00000000E+00  0.00000000E+00  0.00000000E+00  0.00000000E+00  0.00000000E+00
  0.00000000E+00  6.89990666E-02  3.16423961E-01  7.44308291E-01  1.00000000E+00
  0.00000000E+00  0.00000000E+00  0.00000000E+00  0.00000000E+00  0.00000000E+00
  0.00000000E+00  0.00000000E+00  6.89990666E-02  3.16423961E-01  7.44308291E-01
  1.00000000E+00  0.00000000E+00  0.00000000E+00  0.00000000E+00  0.00000000E+00
  0.00000000E+00  0.00000000E+00  0.00000000E+00  6.89990666E-02  3.16423961E-01
  7.44308291E-01  1.00000000E+00  0.00000000E+00  0.00000000E+00  0.00000000E+00
  0.00000000E+00  0.00000000E+00  0.00000000E+00  0.00000000E+00  0.00000000E+00
  0.00000000E+00  0.00000000E+00  0.00000000E+00  0.00000000E+00  0.00000000E+00
  0.00000000E+00  0.00000000E+00  0.00000000E+00  0.00000000E+00  0.00000000E+00
  0.00000000E+00  0.00000000E+00  0.00000000E+00  0.00000000E+00  0.00000000E+00
  0.00000000E+00  0.00000000E+00
Coordinates of each shell                  R   N=         132
  5.37503981E+00 -7.56439671E-01 -1.81580521E-04  5.37503981E+00 -7.56439671E-01
 -1.81580521E-04  5.37503981E+00 -7.56439671E-01 -1.81580521E-04  5.37503981E+00
 -7.56439671E-01 -1.81580521E-04  1.00214620E+00  4.15447197E-01 -4.74951338E-05
  1.00214620E+00  4.15447197E-01 -4.74951338E-05  1.00214620E+00  4.15447197E-01
 -4.74951338E-05  1.00214620E+00  4.15447197E-01 -4.74951338E-05 -6.89774209E-01
  2.44810241E+00  1.32572275E-05 -6.89774209E-01  2.44810241E+00  1.32572275E-05
 -6.89774209E-01  2.44810241E+00  1.32572275E-05 -6.89774209E-01  2.44810241E+00
  1.32572275E-05  1.01380544E-01 -2.07485744E+00 -2.85863005E-06  1.01380544E-01
 -2.07485744E+00 -2.85863005E-06  1.01380544E-01 -2.07485744E+00 -2.85863005E-06
  1.01380544E-01 -2.07485744E+00 -2.85863005E-06 -3.28682195E+00  1.99423269E+00
  1.24208007E-04 -3.28682195E+00  1.99423269E+00  1.24208007E-04 -3.28682195E+00
  1.99423269E+00  1.24208007E-04 -3.28682195E+00  1.99423269E+00  1.24208007E-04
 -2.49127278E+00 -2.51862867E+00  1.04870106E-04 -2.49127278E+00 -2.51862867E+00
  1.04870106E-04 -2.49127278E+00 -2.51862867E+00  1.04870106E-04 -2.49127278E+00
 -2.51862867E+00  1.04870106E-04 -4.18636020E+00 -4.87525629E-01  1.67598413E-04
 -4.18636020E+00 -4.87525629E-01  1.67598413E-04 -4.18636020E+00 -4.87525629E-01
  1.67598413E-04 -4.18636020E+00 -4.87525629E-01  1.67598413E-04  3.75540448E+00
  9.03786663E-01 -1.60651030E-04  3.75540448E+00  9.03786663E-01 -1.60651030E-04
  3.75540448E+00  9.03786663E-01 -1.60651030E-04  3.75540448E+00  9.03786663E-01
 -1.60651030E-04  2.90237667E-02  4.37703604E+00 -2.37212826E-05  2.90237667E-02
  4.37703604E+00 -2.37212826E-05  1.45894515E+00 -3.61664966E+00 -4.99774218E-05
  1.45894515E+00 -3.61664966E+00 -4.99774218E-05 -4.60782504E+00  3.56755726E+00
  1.73688828E-04 -4.60782504E+00  3.56755726E+00  1.73688828E-04 -3.20308695E+00
 -4.44596941E+00  1.37525161E-04 -3.20308695E+00 -4.44596941E+00  1.37525161E-04
 -6.21043347E+00 -8.42574826E-01  2.52630883E-04 -6.21043347E+00 -8.42574826E-01
  2.52630883E-04  4.30484552E+00  2.92877457E+00 -2.31075757E-04  4.30484552E+00
  2.92877457E+00 -2.31075757E-04
Constraint Structure                       R   N=          42
  5.37503981E+00 -7.56439671E-01 -1.81580521E-04  1.00214620E+00  4.15447197E-01
 -4.74951338E-05 -6.89774209E-01  2.44810241E+00  1.32572275E-05  1.01380544E-01
 -2.07485744E+00 -2.85863005E-06 -3.28682195E+00  1.99423269E+00  1.24208007E-04
 -2.49127278E+00 -2.51862867E+00  1.04870106E-04 -4.18636020E+00 -4.87525629E-01
  1.67598413E-04  3.75540448E+00  9.03786663E-01 -1.60651030E-04  2.90237667E-02
  4.37703604E+00 -2.37212826E-05  1.45894515E+00 -3.61664966E+00 -4.99774218E-05
 -4.60782504E+00  3.56755726E+00  1.73688828E-04 -3.20308695E+00 -4.44596941E+00
  1.37525161E-04 -6.21043347E+00 -8.42574826E-01  2.52630883E-04  4.30484552E+00
  2.92877457E+00 -2.31075757E-04
Num ILSW                                   I              100
ILSW                                       I   N=         100
           0           1           0           0           2           0
           0           0           0           0           0          -1
           0           0           0           0           0           0
           0           0           0           0           1           0
           1           0           0           0           0           0
           0           0      100000           0          -1           0
           0           0           0           0           0           0
           0           0           0           1           1           0
           0           0           1           0           0           0
           0           0           4          40           0           0
           0           0           0           0           0           0
           0           0           0           0           0           0
           0           0           0           0           0           0
           0           0           0           0           0           0
           0           0           0           0           0           0
           0           0           0           0           0           0
           0           0           0           0
Num RLSW                                   I               40
RLSW                                       R   N=          40
  1.00000000E+00  1.00000000E+00  1.00000000E+00  1.00000000E+00  1.00000000E+00
  0.00000000E+00  0.00000000E+00  1.00000000E+00  0.00000000E+00  0.00000000E+00
  0.00000000E+00  0.00000000E+00  1.00000000E+00  0.00000000E+00  0.00000000E+00
  0.00000000E+00  0.00000000E+00  1.00000000E+00  0.00000000E+00  0.00000000E+00
  0.00000000E+00  0.00000000E+00  1.00000000E+00  0.00000000E+00  0.00000000E+00
  0.00000000E+00  0.00000000E+00  1.00000000E+00  0.00000000E+00  0.00000000E+00
  0.00000000E+00  0.00000000E+00  0.00000000E+00  0.00000000E+00  0.00000000E+00
  0.00000000E+00  0.00000000E+00  0.00000000E+00  1.00000000E+00  1.00000000E+00
MxBond                                     I                3
NBond                                      I   N=          14
           1           3           3           3           3           3
           3           3           1           1           1           1
           1           1
IBond                                      I   N=          42
           8           0           0           3           4           8
           2           5           9           2           6          10
           3           7          11           4           7          12
           5           6          13           1           2          14
           3           0           0           4           0           0
           5           0           0           6           0           0
           7           0           0           8           0           0
RBond                                      R   N=          42
  2.00000000E+00  0.00000000E+00  0.00000000E+00  1.50000000E+00  1.50000000E+00
  1.00000000E+00  1.50000000E+00  1.50000000E+00  1.00000000E+00  1.50000000E+00
  1.50000000E+00  1.00000000E+00  1.50000000E+00  1.50000000E+00  1.00000000E+00
  1.50000000E+00  1.50000000E+00  1.00000000E+00  1.50000000E+00  1.50000000E+00
  1.00000000E+00  2.00000000E+00  1.00000000E+00  1.00000000E+00  1.00000000E+00
  0.00000000E+00  0.00000000E+00  1.00000000E+00  0.00000000E+00  0.00000000E+00
  1.00000000E+00  0.00000000E+00  0.00000000E+00  1.00000000E+00  0.00000000E+00
  0.00000000E+00  1.00000000E+00  0.00000000E+00  0.00000000E+00  1.00000000E+00
  0.00000000E+00  0.00000000E+00
Virial Ratio                               R      2.002541530218430E+00
SCF Energy                                 R     -3.434296689157905E+02
MP2 Energy                                 R     -3.444863598468116E+02
Total Energy                               R     -3.444863598468116E+02
Post-SCF wavefunction norm                 R      1.659042470761782E+00
RMS Force                                  R      1.749075144392155E-06
RMS Density                                R      1.480027890493069E-09
External E-field                           R   N=          35
  0.00000000E+00  0.00000000E+00  0.00000000E+00  0.00000000E+00  0.00000000E+00
  0.00000000E+00  0.00000000E+00  0.00000000E+00  0.00000000E+00  0.00000000E+00
  0.00000000E+00  0.00000000E+00  0.00000000E+00  0.00000000E+00  0.00000000E+00
  0.00000000E+00  0.00000000E+00  0.00000000E+00  0.00000000E+00  0.00000000E+00
  0.00000000E+00  0.00000000E+00  0.00000000E+00  0.00000000E+00  0.00000000E+00
  0.00000000E+00  0.00000000E+00  0.00000000E+00  0.00000000E+00  0.00000000E+00
  0.00000000E+00  0.00000000E+00  0.00000000E+00  0.00000000E+00  0.00000000E+00
IOpCl                                      I                0
IROHF                                      I                0
Alpha Orbital Energies                     R   N=         132
 -2.05616000E+01 -1.13380088E+01 -1.12614380E+01 -1.12585277E+01 -1.12539374E+01
 -1.12515851E+01 -1.12515223E+01 -1.12494180E+01 -1.37698288E+00 -1.16643242E+00
 -1.04574145E+00 -1.02873276E+00 -8.89986230E-01 -8.41805515E-01 -7.87793366E-01
 -7.14576922E-01 -6.72735670E-01 -6.47023426E-01 -6.14682332E-01 -6.07147728E-01
 -6.00123333E-01 -5.45421870E-01 -5.25140730E-01 -5.06036887E-01 -4.93354055E-01
 -4.24056892E-01 -3.49724171E-01 -3.46026018E-01  7.81258901E-02  1.29674580E-01
  2.14286085E-01  2.28513673E-01  2.56027530E-01  2.94860260E-01  3.01295700E-01
  3.24816501E-01  3.27585736E-01  3.63728087E-01  4.14370490E-01  4.37573280E-01
  4.67313945E-01  4.90802900E-01  5.06236717E-01  5.62647412E-01  6.91968681E-01
  7.25437827E-01  7.27789795E-01  7.49690216E-01  7.53078484E-01  7.64102521E-01
  7.64696042E-01  8.06976351E-01  8.13722046E-01  8.23624885E-01  8.26468191E-01
  8.56592729E-01  8.60413427E-01  8.93831992E-01  9.33081537E-01  9.59102899E-01
  1.00397854E+00  1.04738681E+00  1.07277488E+00  1.08138290E+00  1.09926827E+00
  1.10142544E+00  1.11951252E+00  1.13283103E+00  1.17678642E+00  1.18785593E+00
  1.20371367E+00  1.23441186E+00  1.29393586E+00  1.30037301E+00  1.30284279E+00
  1.36525550E+00  1.39295555E+00  1.42591438E+00  1.49304504E+00  1.50388939E+00
  1.56416662E+00  1.57745911E+00  1.68222103E+00  1.69163966E+00  1.69796223E+00
  1.72867900E+00  1.75454794E+00  1.77228893E+00  1.81710650E+00  1.84331414E+00
  2.00066180E+00  2.05124367E+00  2.05320600E+00  2.09684752E+00  2.13725452E+00
  2.16365001E+00  2.21897767E+00  2.28307690E+00  2.28369748E+00  2.32499056E+00
  2.35310140E+00  2.37094296E+00  2.44702319E+00  2.45318402E+00  2.45849815E+00
  2.51684236E+00  2.60120130E+00  2.61708727E+00  2.62781451E+00  2.68179319E+00
  2.68725685E+00  2.85782763E+00  2.90836610E+00  2.91618107E+00  2.94490781E+00
  3.00314833E+00  3.06403128E+00  3.07891601E+00  3.08408766E+00  3.18337879E+00
  3.27076976E+00  3.33452216E+00  3.49517273E+00  3.77979503E+00  4.31092685E+00
  4.49299103E+00  4.51556884E+00  4.52837892E+00  4.62324204E+00  4.73567855E+00
  4.81040373E+00  5.11564246E+00
Alpha MO coefficients                      R   N=       17424
  9.94700895E-01  2.09019022E-02 -1.07000442E-03  1.06806818E-03  1.39168712E-08
  4.59070938E-03  1.50669367E-05 -4.23509537E-06 -7.64879525E-10 -3.75686665E-03
 -3.74297867E-03 -4.18039186E-03 -1.52835887E-04 -1.47629386E-08 -6.46394714E-09
  5.27233300E-07  2.75177645E-07 -2.01870838E-05  9.61194318E-06  1.99404901E-10
 -8.10721101E-05 -3.38814761E-05 -1.54223932E-04  3.90689462E-09 -2.15859227E-05
  2.89685349E-05 -1.61829897E-05  7.56315208E-05 -1.11056569E-09 -3.68138390E-09
  6.88987607E-07  9.16485297E-06  1.92524174E-05 -9.83302680E-06 -8.71630135E-10
  1.71664904E-04 -1.63235209E-04 -9.44106701E-05  6.89625929E-09 -8.28138369E-06
  1.55628135E-05  3.51896203E-06 -6.30901251E-06  6.16506465E-10  3.41137874E-10
 -2.70442369E-06 -6.75619495E-06  1.11213369E-06 -4.83894140E-07  1.34458216E-10
  1.35431883E-04 -1.10975804E-04 -1.76247574E-04  3.92688123E-09  8.66427203E-06
 -3.74757364E-05 -2.43397009E-06 -1.84413654E-08 -5.76867031E-10 -1.53555711E-10
  3.28966295E-06  1.77930579E-05 -3.51076766E-07  7.29051874E-07  4.75565958E-11
 -2.63708209E-04 -1.15525751E-04  6.13800221E-05  4.78675848E-09  4.85983765E-08
 -3.33080338E-07  6.32155826E-06  1.71206902E-06  3.13085866E-10 -5.70176287E-11
  2.82684201E-06  1.47189155E-05 -1.20433507E-06 -2.27592525E-06 -2.79167713E-11
 -2.08517824E-04 -1.17827448E-04 -1.41809276E-06  5.40565813E-09 -6.10266113E-06
  4.03440817E-06  6.34930782E-06  1.10257204E-06  6.33775852E-10 -1.24943165E-11
 -1.37635026E-06 -7.12130766E-06 -2.52608955E-06  1.76775420E-06  1.50305170E-10
  7.68906267E-05  8.78518319E-05  4.42742704E-05 -4.00416179E-09 -1.08727864E-06
  6.31548273E-08 -2.15254839E-06  1.26324006E-06 -6.99273094E-11 -3.37981698E-11
 -5.29638176E-06  4.70614383E-04 -1.92248753E-05  3.12270291E-05 -5.96312945E-11
 -2.61529290E-04 -4.75661271E-04  4.34187286E-04  7.58126396E-09 -4.03848111E-04
 -4.11909182E-04 -4.14000161E-05  3.99445152E-04  6.21155239E-09 -4.60106047E-09
  1.78712585E-05  2.62211609E-05  2.23858227E-05 -1.45501842E-04  7.68092191E-07
 -2.79879951E-05  4.24960903E-06  4.00729142E-06  6.80310650E-06  2.57262444E-05
 -3.62055207E-05 -1.16122943E-04 -2.59876144E-04  6.55659973E-04 -1.84445656E-04
  1.83770186E-04  1.44041990E-09 -3.30947590E-03  1.26679565E-03 -1.31778565E-03
 -1.22469869E-08  1.04725067E-04  4.65062425E-05  4.46242416E-04  1.69846844E-04
  1.02920595E-08  4.63454376E-09  4.07613535E-03  2.41342829E-04 -4.22888809E-05
 -1.18718319E-04  3.80766459E-09  3.64652365E-03 -1.07657311E-03  2.38705501E-03
  1.55446453E-08 -6.18998780E-04 -3.05920898E-04 -1.38436250E-04 -1.43456818E-04
  2.18884306E-08  7.28679438E-09 -8.24263532E-06  3.46410123E-05 -1.88246731E-04
 -1.40443132E-05  6.52586398E-09 -3.95130645E-03  1.34039536E-03  2.03845193E-03
 -5.52591612E-08 -2.05200757E-05  5.69608807E-05 -1.19546470E-05 -3.92701873E-05
  1.17768532E-09  5.97497341E-10 -5.58892813E-06 -8.59364239E-05 -6.26753374E-05
  3.28763434E-05  2.87131318E-09 -4.73720610E-04  1.94683181E-03  1.70329265E-04
 -7.56646402E-08  9.80720019E-06  1.32243133E-04 -2.52789921E-05  5.23679159E-05
 -1.70556248E-09 -1.71575723E-09 -2.99800953E-05 -2.04507938E-04  5.51028093E-05
  1.84827002E-05 -2.09612542E-09  3.16308707E-03  1.50806888E-03 -9.56992110E-04
 -6.44630801E-08  5.40730491E-05 -1.69656885E-05 -6.44798662E-05 -8.74070450E-07
 -6.28223979E-09  4.10045399E-11 -1.38771332E-05 -1.12607863E-04  1.49884742E-06
  2.71022814E-05 -2.55165135E-10  2.27805198E-03  9.11127764E-04  6.44708290E-04
 -4.05258718E-08  1.57827896E-05 -3.15090801E-06 -3.61931417E-05  9.69658721E-06
 -2.59980768E-09 -5.46757158E-10  1.45557316E-05  7.42941034E-05  1.26300313E-05
 -2.83575411E-05 -7.07895504E-10 -1.40606024E-03 -1.08740986E-03 -3.18897436E-04
  4.73058990E-08  9.64560236E-06 -4.57228619E-06  1.70677772E-05 -8.00294666E-06
  3.26788877E-10  5.84343667E-10  9.95782487E-01  2.65316277E-02  2.73260377E-04
 -5.12859106E-04  2.06289606E-09 -6.65725377E-03  2.20477818E-03 -2.90014841E-03
 -1.96250598E-08 -1.19114477E-03 -1.34046486E-03 -2.42395481E-03 -5.40544998E-04
 -3.88864650E-08 -9.69153048E-09 -1.49904024E-04 -6.31616155E-04 -1.45608079E-04
 -3.69697512E-04  1.83670428E-05  4.12772883E-04 -1.59936207E-05  1.91842385E-04
 -5.79741893E-05 -2.70827520E-04  9.35517385E-06  2.51149202E-03 -2.22724065E-05
 -1.02190893E-04  1.41760938E-05 -6.81324645E-06 -1.72352300E-11  5.23043253E-04
 -1.52068768E-04  3.52489782E-05  3.50059002E-09 -2.89362459E-05 -8.69299644E-05
 -7.00057262E-05  3.36207104E-06 -1.71475996E-09  5.42515143E-10  5.89857084E-02
  1.40850564E-03  1.51281078E-04 -9.87619169E-05 -6.07463098E-09  5.60957855E-03
 -2.95244126E-03  5.28265827E-04  1.21318320E-07 -4.49530438E-04 -5.63753804E-04
 -2.83444841E-04  1.02948327E-04  7.89421461E-09 -2.62947044E-09  9.92023120E-01
  2.75921229E-02 -3.57333060E-05 -2.05504852E-04  5.07167592E-09 -1.47263246E-02
  9.72552568E-04  2.76330343E-03 -5.69442457E-08 -1.52365799E-03 -1.76905381E-03
 -2.33391693E-03 -9.19123985E-05 -3.86850484E-08  1.62196461E-09  3.70604445E-03
  1.01661320E-04 -3.63415620E-06 -2.84253958E-05  6.33122115E-10 -2.58156353E-03
  1.01089337E-03 -1.12941655E-03 -3.96602859E-08  1.89721560E-05  8.79157073E-05
  4.23562187E-06 -6.16729027E-07 -4.25851436E-10 -6.36723436E-10  5.97419516E-02
  1.39712441E-03 -1.72634296E-04  9.71549986E-06  7.19982632E-09  5.59961688E-03
  2.51877414E-03 -1.16846291E-03 -1.00699672E-07 -5.81074426E-04 -4.06515074E-04
 -2.85293476E-04 -9.17481572E-05  1.47593579E-08  4.63549756E-09 -2.12103117E-04
 -1.76433719E-04 -5.69722756E-06 -3.56551581E-05  4.14045054E-10  2.37518853E-03
  4.82803776E-04  1.34016257E-03 -2.31202263E-08 -6.40784142E-07 -8.95160396E-06
 -6.86164179E-05 -4.32696632E-06 -3.25375740E-09 -1.56921328E-10  1.05313127E-02
  2.83546362E-04 -1.50757193E-05 -1.86218475E-05  1.03901492E-09 -2.48810270E-03
 -1.32976497E-03 -1.55796092E-04  5.28864141E-08  4.11790274E-05  4.62497750E-05
 -9.19039646E-06  5.04662911E-05 -2.99824193E-09 -2.29051511E-09 -2.48966649E-04
 -1.46266923E-04 -6.24230962E-06 -2.77268360E-05  5.11935960E-10  6.96414611E-04
 -3.71501896E-04  3.23261702E-04  6.59296634E-09  5.68406492E-05  9.45352455E-07
 -3.55021124E-05 -2.55229623E-05 -4.32738503E-09  1.03563556E-09 -2.27711181E-04
  1.29474972E-03 -3.84683544E-05 -2.87263458E-04 -1.31137201E-05  5.01974773E-04
  4.00240687E-05  3.55980509E-04 -3.95894501E-05 -1.90770390E-04 -5.26354533E-05
 -2.08949590E-04  1.41917995E-06  6.34089052E-06 -1.28071622E-07 -4.70221732E-06
  8.39369330E-11 -7.18412706E-05  4.19580922E-05 -2.25732756E-06 -1.33846404E-09
  2.06368620E-06  4.11136294E-06  1.46877976E-06  6.72311357E-06 -2.69017999E-10
 -3.46996556E-10 -2.31356623E-03 -2.22248939E-04  6.16044519E-05  1.34154908E-05
 -2.44043118E-09  2.07256772E-03 -1.74319906E-03 -3.04589002E-04  7.11255550E-08
  3.04960560E-07  2.70414036E-05 -5.49493679E-05 -8.07112577E-06 -2.52960127E-09