61020                                                                   
Freq      RMP2-FC                                                     6-31G(d)            
Number of atoms                            I               14
Info1-9                                    I   N=           9
          26          24        1002           0           0         100
           6           2           1
Charge                                     I                0
Multiplicity                               I                1
Number of electrons                        I               46
Number of alpha electrons                  I               23
Number of beta electrons                   I               23
Number of basis functions                  I              106
Number of independent functions            I              106
Number of point charges in /Mol/           I                0
Number of translation vectors              I                0
Atomic numbers                             I   N=          14
           8           6           6           6           6           6
           1           1           1           1           1           1
           1           1
Nuclear charges                            R   N=          14
  8.00000000E+00  6.00000000E+00  6.00000000E+00  6.00000000E+00  6.00000000E+00
  6.00000000E+00  1.00000000E+00  1.00000000E+00  1.00000000E+00  1.00000000E+00
  1.00000000E+00  1.00000000E+00  1.00000000E+00  1.00000000E+00
Current cartesian coordinates              R   N=          42
 -5.18476735E+00 -4.68625501E-01 -5.76339896E-04  1.64529255E+00 -9.53367890E-02
  1.73305241E-04  3.85296288E+00 -1.88221180E+00  3.81178476E-04  2.36406085E+00
  2.65548649E+00  3.27477340E-04 -7.44131665E-01 -1.00086480E+00 -1.11323346E-04
 -3.07017323E+00  5.03686863E-01 -3.31274065E-04  5.04454081E+00 -1.56193848E+00
  1.66429284E+00  5.04485937E+00 -1.56192518E+00 -1.66329988E+00  3.24212132E+00
 -3.85418011E+00  3.14070032E-04  3.52544091E+00  3.07536691E+00 -1.66188929E+00
  3.52495321E+00  3.07530820E+00  1.66290026E+00  7.54947300E-01  3.94009254E+00
  1.14063390E-04 -1.06088461E+00 -3.03368669E+00 -1.88970137E-04 -2.88590779E+00
  2.58540707E+00 -2.68563155E-04
Force Field                                I                0
Int Atom Types                             I   N=          14
           0           0           0           0           0           0
           0           0           0           0           0           0
           0           0
MM charges                                 R   N=          14
  0.00000000E+00  0.00000000E+00  0.00000000E+00  0.00000000E+00  0.00000000E+00
  0.00000000E+00  0.00000000E+00  0.00000000E+00  0.00000000E+00  0.00000000E+00
  0.00000000E+00  0.00000000E+00  0.00000000E+00  0.00000000E+00
Integer atomic weights                     I   N=          14
          16          12          12          12          12          12
           1           1           1           1           1           1
           1           1
Real atomic weights                        R   N=          14
  1.59949146E+01  1.20000000E+01  1.20000000E+01  1.20000000E+01  1.20000000E+01
  1.20000000E+01  1.00782504E+00  1.00782504E+00  1.00782504E+00  1.00782504E+00
  1.00782504E+00  1.00782504E+00  1.00782504E+00  1.00782504E+00
Atom fragment info                         I   N=          14
           0           0           0           0           0           0
           0           0           0           0           0           0
           0           0
Atom residue num                           I   N=          14
           0           0           0           0           0           0
           0           0           0           0           0           0
           0           0
Nuclear spins                              I   N=          14
           0           0           0           0           0           0
           1           1           1           1           1           1
           1           1
Nuclear ZEff                               R   N=          14
 -5.60000000E+00 -3.60000000E+00 -3.60000000E+00 -3.60000000E+00 -3.60000000E+00
 -3.60000000E+00 -1.00000000E+00 -1.00000000E+00 -1.00000000E+00 -1.00000000E+00
 -1.00000000E+00 -1.00000000E+00 -1.00000000E+00 -1.00000000E+00
Nuclear QMom                               R   N=          14
  0.00000000E+00  0.00000000E+00  0.00000000E+00  0.00000000E+00  0.00000000E+00
  0.00000000E+00  0.00000000E+00  0.00000000E+00  0.00000000E+00  0.00000000E+00
  0.00000000E+00  0.00000000E+00  0.00000000E+00  0.00000000E+00
Nuclear GFac                               R   N=          14
  0.00000000E+00  0.00000000E+00  0.00000000E+00  0.00000000E+00  0.00000000E+00
  0.00000000E+00  2.79284600E+00  2.79284600E+00  2.79284600E+00  2.79284600E+00
  2.79284600E+00  2.79284600E+00  2.79284600E+00  2.79284600E+00
MicOpt                                     I   N=          14
          -1          -1          -1          -1          -1          -1
          -1          -1          -1          -1          -1          -1
          -1          -1
Number of contracted shells                I               40
Number of primitive shells                 I               98
Pure/Cartesian d shells                    I                1
Pure/Cartesian f shells                    I                0
Highest angular momentum                   I                2
Largest degree of contraction              I                6
Shell types                                I   N=          40
           0          -1          -1           2           0          -1
          -1           2           0          -1          -1           2
           0          -1          -1           2           0          -1
          -1           2           0          -1          -1           2
           0           0           0           0           0           0
           0           0           0           0           0           0
           0           0           0           0
Number of primitives per shell             I   N=          40
           6           3           1           1           6           3
           1           1           6           3           1           1
           6           3           1           1           6           3
           1           1           6           3           1           1
           3           1           3           1           3           1
           3           1           3           1           3           1
           3           1           3           1
Shell to atom map                          I   N=          40
           1           1           1           1           2           2
           2           2           3           3           3           3
           4           4           4           4           5           5
           5           5           6           6           6           6
           7           7           8           8           9           9
          10          10          11          11          12          12
          13          13          14          14
Primitive exponents                        R   N=          98
  5.48467166E+03  8.25234946E+02  1.88046958E+02  5.29645000E+01  1.68975704E+01
  5.79963534E+00  1.55396162E+01  3.59993359E+00  1.01376175E+00  2.70005823E-01
  8.00000000E-01  3.04752488E+03  4.57369518E+02  1.03948685E+02  2.92101553E+01
  9.28666296E+00  3.16392696E+00  7.86827235E+00  1.88128854E+00  5.44249258E-01
  1.68714478E-01  8.00000000E-01  3.04752488E+03  4.57369518E+02  1.03948685E+02
  2.92101553E+01  9.28666296E+00  3.16392696E+00  7.86827235E+00  1.88128854E+00
  5.44249258E-01  1.68714478E-01  8.00000000E-01  3.04752488E+03  4.57369518E+02
  1.03948685E+02  2.92101553E+01  9.28666296E+00  3.16392696E+00  7.86827235E+00
  1.88128854E+00  5.44249258E-01  1.68714478E-01  8.00000000E-01  3.04752488E+03
  4.57369518E+02  1.03948685E+02  2.92101553E+01  9.28666296E+00  3.16392696E+00
  7.86827235E+00  1.88128854E+00  5.44249258E-01  1.68714478E-01  8.00000000E-01
  3.04752488E+03  4.57369518E+02  1.03948685E+02  2.92101553E+01  9.28666296E+00
  3.16392696E+00  7.86827235E+00  1.88128854E+00  5.44249258E-01  1.68714478E-01
  8.00000000E-01  1.87311370E+01  2.82539436E+00  6.40121692E-01  1.61277759E-01
  1.87311370E+01  2.82539436E+00  6.40121692E-01  1.61277759E-01  1.87311370E+01
  2.82539436E+00  6.40121692E-01  1.61277759E-01  1.87311370E+01  2.82539436E+00
  6.40121692E-01  1.61277759E-01  1.87311370E+01  2.82539436E+00  6.40121692E-01
  1.61277759E-01  1.87311370E+01  2.82539436E+00  6.40121692E-01  1.61277759E-01
  1.87311370E+01  2.82539436E+00  6.40121692E-01  1.61277759E-01  1.87311370E+01
  2.82539436E+00  6.40121692E-01  1.61277759E-01
Contraction coefficients                   R   N=          98
  1.83107443E-03  1.39501722E-02  6.84450781E-02  2.32714336E-01  4.70192898E-01
  3.58520853E-01 -1.10777550E-01 -1.48026263E-01  1.13076702E+00  1.00000000E+00
  1.00000000E+00  1.83473713E-03  1.40373228E-02  6.88426223E-02  2.32184443E-01
  4.67941348E-01  3.62311985E-01 -1.19332420E-01 -1.60854152E-01  1.14345644E+00
  1.00000000E+00  1.00000000E+00  1.83473713E-03  1.40373228E-02  6.88426223E-02
  2.32184443E-01  4.67941348E-01  3.62311985E-01 -1.19332420E-01 -1.60854152E-01
  1.14345644E+00  1.00000000E+00  1.00000000E+00  1.83473713E-03  1.40373228E-02
  6.88426223E-02  2.32184443E-01  4.67941348E-01  3.62311985E-01 -1.19332420E-01
 -1.60854152E-01  1.14345644E+00  1.00000000E+00  1.00000000E+00  1.83473713E-03
  1.40373228E-02  6.88426223E-02  2.32184443E-01  4.67941348E-01  3.62311985E-01
 -1.19332420E-01 -1.60854152E-01  1.14345644E+00  1.00000000E+00  1.00000000E+00
  1.83473713E-03  1.40373228E-02  6.88426223E-02  2.32184443E-01  4.67941348E-01
  3.62311985E-01 -1.19332420E-01 -1.60854152E-01  1.14345644E+00  1.00000000E+00
  1.00000000E+00  3.34946043E-02  2.34726953E-01  8.13757326E-01  1.00000000E+00
  3.34946043E-02  2.34726953E-01  8.13757326E-01  1.00000000E+00  3.34946043E-02
  2.34726953E-01  8.13757326E-01  1.00000000E+00  3.34946043E-02  2.34726953E-01
  8.13757326E-01  1.00000000E+00  3.34946043E-02  2.34726953E-01  8.13757326E-01
  1.00000000E+00  3.34946043E-02  2.34726953E-01  8.13757326E-01  1.00000000E+00
  3.34946043E-02  2.34726953E-01  8.13757326E-01  1.00000000E+00  3.34946043E-02
  2.34726953E-01  8.13757326E-01  1.00000000E+00
P(S=P) Contraction coefficients            R   N=          98
  0.00000000E+00  0.00000000E+00  0.00000000E+00  0.00000000E+00  0.00000000E+00
  0.00000000E+00  7.08742682E-02  3.39752839E-01  7.27158577E-01  1.00000000E+00
  0.00000000E+00  0.00000000E+00  0.00000000E+00  0.00000000E+00  0.00000000E+00
  0.00000000E+00  0.00000000E+00  6.89990666E-02  3.16423961E-01  7.44308291E-01
  1.00000000E+00  0.00000000E+00  0.00000000E+00  0.00000000E+00  0.00000000E+00
  0.00000000E+00  0.00000000E+00  0.00000000E+00  6.89990666E-02  3.16423961E-01
  7.44308291E-01  1.00000000E+00  0.00000000E+00  0.00000000E+00  0.00000000E+00
  0.00000000E+00  0.00000000E+00  0.00000000E+00  0.00000000E+00  6.89990666E-02
  3.16423961E-01  7.44308291E-01  1.00000000E+00  0.00000000E+00  0.00000000E+00
  0.00000000E+00  0.00000000E+00  0.00000000E+00  0.00000000E+00  0.00000000E+00
  6.89990666E-02  3.16423961E-01  7.44308291E-01  1.00000000E+00  0.00000000E+00
  0.00000000E+00  0.00000000E+00  0.00000000E+00  0.00000000E+00  0.00000000E+00
  0.00000000E+00  6.89990666E-02  3.16423961E-01  7.44308291E-01  1.00000000E+00
  0.00000000E+00  0.00000000E+00  0.00000000E+00  0.00000000E+00  0.00000000E+00
  0.00000000E+00  0.00000000E+00  0.00000000E+00  0.00000000E+00  0.00000000E+00
  0.00000000E+00  0.00000000E+00  0.00000000E+00  0.00000000E+00  0.00000000E+00
  0.00000000E+00  0.00000000E+00  0.00000000E+00  0.00000000E+00  0.00000000E+00
  0.00000000E+00  0.00000000E+00  0.00000000E+00  0.00000000E+00  0.00000000E+00
  0.00000000E+00  0.00000000E+00  0.00000000E+00  0.00000000E+00  0.00000000E+00
  0.00000000E+00  0.00000000E+00  0.00000000E+00
Coordinates of each shell                  R   N=         120
 -5.18476735E+00 -4.68625501E-01 -5.76339896E-04 -5.18476735E+00 -4.68625501E-01
 -5.76339896E-04 -5.18476735E+00 -4.68625501E-01 -5.76339896E-04 -5.18476735E+00
 -4.68625501E-01 -5.76339896E-04  1.64529255E+00 -9.53367890E-02  1.73305241E-04
  1.64529255E+00 -9.53367890E-02  1.73305241E-04  1.64529255E+00 -9.53367890E-02
  1.73305241E-04  1.64529255E+00 -9.53367890E-02  1.73305241E-04  3.85296288E+00
 -1.88221180E+00  3.81178476E-04  3.85296288E+00 -1.88221180E+00  3.81178476E-04
  3.85296288E+00 -1.88221180E+00  3.81178476E-04  3.85296288E+00 -1.88221180E+00
  3.81178476E-04  2.36406085E+00  2.65548649E+00  3.27477340E-04  2.36406085E+00
  2.65548649E+00  3.27477340E-04  2.36406085E+00  2.65548649E+00  3.27477340E-04
  2.36406085E+00  2.65548649E+00  3.27477340E-04 -7.44131665E-01 -1.00086480E+00
 -1.11323346E-04 -7.44131665E-01 -1.00086480E+00 -1.11323346E-04 -7.44131665E-01
 -1.00086480E+00 -1.11323346E-04 -7.44131665E-01 -1.00086480E+00 -1.11323346E-04
 -3.07017323E+00  5.03686863E-01 -3.31274065E-04 -3.07017323E+00  5.03686863E-01
 -3.31274065E-04 -3.07017323E+00  5.03686863E-01 -3.31274065E-04 -3.07017323E+00
  5.03686863E-01 -3.31274065E-04  5.04454081E+00 -1.56193848E+00  1.66429284E+00
  5.04454081E+00 -1.56193848E+00  1.66429284E+00  5.04485937E+00 -1.56192518E+00
 -1.66329988E+00  5.04485937E+00 -1.56192518E+00 -1.66329988E+00  3.24212132E+00
 -3.85418011E+00  3.14070032E-04  3.24212132E+00 -3.85418011E+00  3.14070032E-04
  3.52544091E+00  3.07536691E+00 -1.66188929E+00  3.52544091E+00  3.07536691E+00
 -1.66188929E+00  3.52495321E+00  3.07530820E+00  1.66290026E+00  3.52495321E+00
  3.07530820E+00  1.66290026E+00  7.54947300E-01  3.94009254E+00  1.14063390E-04
  7.54947300E-01  3.94009254E+00  1.14063390E-04 -1.06088461E+00 -3.03368669E+00
 -1.88970137E-04 -1.06088461E+00 -3.03368669E+00 -1.88970137E-04 -2.88590779E+00
  2.58540707E+00 -2.68563155E-04 -2.88590779E+00  2.58540707E+00 -2.68563155E-04
Constraint Structure                       R   N=          42
 -5.18476735E+00 -4.68625501E-01 -5.76339896E-04  1.64529255E+00 -9.53367890E-02
  1.73305241E-04  3.85296288E+00 -1.88221180E+00  3.81178476E-04  2.36406085E+00
  2.65548649E+00  3.27477340E-04 -7.44131665E-01 -1.00086480E+00 -1.11323346E-04
 -3.07017323E+00  5.03686863E-01 -3.31274065E-04  5.04454081E+00 -1.56193848E+00
  1.66429284E+00  5.04485937E+00 -1.56192518E+00 -1.66329988E+00  3.24212132E+00
 -3.85418011E+00  3.14070032E-04  3.52544091E+00  3.07536691E+00 -1.66188929E+00
  3.52495321E+00  3.07530820E+00  1.66290026E+00  7.54947300E-01  3.94009254E+00
  1.14063390E-04 -1.06088461E+00 -3.03368669E+00 -1.88970137E-04 -2.88590779E+00
  2.58540707E+00 -2.68563155E-04
Num ILSW                                   I              100
ILSW                                       I   N=         100
           0           1           0           0           2           0
           0           0           0           0           0          -1
           0           0           0           0           0           0
           0           0           0           0           1           0
           1           0           0           0           0           0
           0           0      100000           0          -1           0
           0           0           0           0           0           0
           0           0           0           1           1           0
           0           0           1           0           0           0
           0           0           4          40           0           0
           0           0           0           0           0           0
           0           0           0           0           0           0
           0           0           0           0           0           0
           0           0           0           0           0           0
           0           0           0           0           0           0
           0           0           0           0           0           0
           0           0           0           0
Num RLSW                                   I               40
RLSW                                       R   N=          40
  1.00000000E+00  1.00000000E+00  1.00000000E+00  1.00000000E+00  1.00000000E+00
  0.00000000E+00  0.00000000E+00  1.00000000E+00  0.00000000E+00  0.00000000E+00
  0.00000000E+00  0.00000000E+00  1.00000000E+00  0.00000000E+00  0.00000000E+00
  0.00000000E+00  0.00000000E+00  1.00000000E+00  0.00000000E+00  0.00000000E+00
  0.00000000E+00  0.00000000E+00  1.00000000E+00  0.00000000E+00  0.00000000E+00
  0.00000000E+00  0.00000000E+00  1.00000000E+00  0.00000000E+00  0.00000000E+00
  0.00000000E+00  0.00000000E+00  0.00000000E+00  0.00000000E+00  0.00000000E+00
  0.00000000E+00  0.00000000E+00  0.00000000E+00  1.00000000E+00  1.00000000E+00
MxBond                                     I                4
NBond                                      I   N=          14
           1           3           4           4           3           3
           1           1           1           1           1           1
           1           1
IBond                                      I   N=          56
           6           0           0           0           3           4
           5           0           2           7           8           9
           2          10          11          12           2           6
          13           0           1           5          14           0
           3           0           0           0           3           0
           0           0           3           0           0           0
           4           0           0           0           4           0
           0           0           4           0           0           0
           5           0           0           0           6           0
           0           0
RBond                                      R   N=          56
  2.00000000E+00  0.00000000E+00  0.00000000E+00  0.00000000E+00  1.00000000E+00
  1.00000000E+00  2.00000000E+00  0.00000000E+00  1.00000000E+00  1.00000000E+00
  1.00000000E+00  1.00000000E+00  1.00000000E+00  1.00000000E+00  1.00000000E+00
  1.00000000E+00  2.00000000E+00  1.00000000E+00  1.00000000E+00  0.00000000E+00
  2.00000000E+00  1.00000000E+00  1.00000000E+00  0.00000000E+00  1.00000000E+00
  0.00000000E+00  0.00000000E+00  0.00000000E+00  1.00000000E+00  0.00000000E+00
  0.00000000E+00  0.00000000E+00  1.00000000E+00  0.00000000E+00  0.00000000E+00
  0.00000000E+00  1.00000000E+00  0.00000000E+00  0.00000000E+00  0.00000000E+00
  1.00000000E+00  0.00000000E+00  0.00000000E+00  0.00000000E+00  1.00000000E+00
  0.00000000E+00  0.00000000E+00  0.00000000E+00  1.00000000E+00  0.00000000E+00
  0.00000000E+00  0.00000000E+00  1.00000000E+00  0.00000000E+00  0.00000000E+00
  0.00000000E+00
Virial Ratio                               R      2.002345726131773E+00
SCF Energy                                 R     -2.688355055580050E+02
MP2 Energy                                 R     -2.696530663453435E+02
Total Energy                               R     -2.696530663453435E+02
Post-SCF wavefunction norm                 R      1.597655959286017E+00
RMS Force                                  R      4.635094275952701E-07
RMS Density                                R      2.302068026352969E-09
External E-field                           R   N=          35
  0.00000000E+00  0.00000000E+00  0.00000000E+00  0.00000000E+00  0.00000000E+00
  0.00000000E+00  0.00000000E+00  0.00000000E+00  0.00000000E+00  0.00000000E+00
  0.00000000E+00  0.00000000E+00  0.00000000E+00  0.00000000E+00  0.00000000E+00
  0.00000000E+00  0.00000000E+00  0.00000000E+00  0.00000000E+00  0.00000000E+00
  0.00000000E+00  0.00000000E+00  0.00000000E+00  0.00000000E+00  0.00000000E+00
  0.00000000E+00  0.00000000E+00  0.00000000E+00  0.00000000E+00  0.00000000E+00
  0.00000000E+00  0.00000000E+00  0.00000000E+00  0.00000000E+00  0.00000000E+00
IOpCl                                      I                0
IROHF                                      I                0
Alpha Orbital Energies                     R   N=         106
 -2.05497719E+01 -1.13272479E+01 -1.12810305E+01 -1.12466877E+01 -1.12420442E+01
 -1.12351683E+01 -1.36341727E+00 -1.12169040E+00 -9.82787929E-01 -9.65877854E-01
 -8.27307709E-01 -7.41818916E-01 -6.66170013E-01 -6.36425789E-01 -6.15398601E-01
 -5.96553122E-01 -5.59073518E-01 -5.55071694E-01 -5.43266326E-01 -5.16801578E-01
 -5.14294123E-01 -4.13458485E-01 -3.61533145E-01  9.84792326E-02  2.18731593E-01
  2.43474409E-01  2.48854471E-01  2.67532382E-01  2.87068345E-01  3.11236805E-01
  3.27727716E-01  3.44257945E-01  3.58275227E-01  3.81091032E-01  4.33375627E-01
  4.68693860E-01  5.49394857E-01  6.08701499E-01  6.94899700E-01  7.14548577E-01
  7.40285106E-01  7.43351530E-01  7.88792430E-01  8.22441099E-01  8.24310215E-01
  8.71197308E-01  9.18856110E-01  9.29743226E-01  9.52390321E-01  9.75183525E-01
  1.01215731E+00  1.03610588E+00  1.08057685E+00  1.11367797E+00  1.12703122E+00
  1.12949965E+00  1.15403143E+00  1.15570085E+00  1.19173292E+00  1.20036818E+00
  1.22480646E+00  1.25716109E+00  1.30705380E+00  1.32044731E+00  1.33645233E+00
  1.41522629E+00  1.46389690E+00  1.56325656E+00  1.64321887E+00  1.66465166E+00
  1.73846818E+00  1.76813668E+00  1.82900387E+00  1.83435738E+00  2.05974873E+00
  2.08143228E+00  2.11023478E+00  2.12702402E+00  2.13286384E+00  2.18192894E+00
  2.22852229E+00  2.27312468E+00  2.32013580E+00  2.34512472E+00  2.41557529E+00
  2.47031741E+00  2.52345991E+00  2.53719051E+00  2.60020673E+00  2.67061495E+00
  2.72049276E+00  2.72290743E+00  2.81815517E+00  2.85626592E+00  2.93030757E+00
  2.98408690E+00  3.06584502E+00  3.31984399E+00  3.36891917E+00  3.44190847E+00
  4.26802306E+00  4.47649342E+00  4.58139199E+00  4.68972680E+00  4.71631928E+00
  4.93993539E+00
Alpha MO coefficients                      R   N=       11236
  9.94707670E-01  2.09078579E-02  1.36306486E-03  6.21087530E-04  1.57665030E-07
  4.48596105E-03 -4.49056294E-05  2.82914932E-07 -4.86078563E-09 -3.66215712E-03
 -3.81381897E-03 -4.16197554E-03  1.08665277E-04  6.35679605E-08  1.94704643E-08
  3.11407211E-06  1.45745434E-05 -3.07998921E-05 -1.57817622E-06 -3.54979054E-09
  2.50169954E-05  1.43364983E-04 -3.04538167E-05  1.61691666E-08  1.22453003E-05
  1.21718962E-05  8.45454238E-06  1.75722019E-05  9.67243452E-10  2.16798796E-09
  3.02231434E-06  1.35694421E-05  1.63163441E-06 -2.20493795E-06  1.32654594E-10
 -1.33400162E-04  3.63945066E-05 -3.76723122E-05  3.09308394E-09  3.18156975E-06
  2.12749521E-06  4.82638123E-06  1.60676224E-06 -1.57396982E-10  8.59768978E-11
  3.42109295E-06  1.09933207E-05 -1.18618919E-05 -3.94507760E-06 -1.03835995E-09
 -3.60582109E-05  3.50189773E-06  4.22105709E-05 -1.20474211E-09  8.07492002E-06
 -1.61272071E-06  1.36826234E-05  4.02483748E-06 -8.93568946E-10  7.47790925E-12
 -6.08369336E-07  1.36365564E-05  1.77655874E-05  9.66501615E-06  2.06946604E-09
 -9.15278752E-05  8.04298810E-05 -8.25639438E-05  6.84891162E-09 -7.64131005E-05
  4.02042671E-05 -1.83305398E-05 -2.28187454E-05 -7.72092983E-09 -1.11341110E-09
 -3.21771184E-06  4.78844650E-04  1.80523233E-05  7.60462508E-06  2.07474136E-09
 -2.21241109E-04  5.72593911E-04  1.93351266E-04  6.53364528E-08 -6.17777970E-04
 -1.67023855E-04 -3.77592368E-05 -2.96130234E-04 -7.74060365E-08 -3.46045461E-08
  4.01373389E-06  6.56141152E-06  4.01364223E-06  6.56140787E-06  3.51509782E-06
  3.89582457E-06 -2.28885327E-06  2.30147692E-06 -2.28833192E-06  2.30440432E-06
  9.03555188E-06 -3.56643765E-05  1.11558460E-06 -4.30048751E-05 -3.87429014E-05
 -9.55270645E-05 -2.83035689E-04  5.15294488E-04  2.29885981E-04  1.17958288E-04
  2.65559143E-08 -2.30839557E-03 -1.37430317E-03 -7.36844643E-04 -1.59688735E-07
 -7.91738612E-05  4.63850518E-05  3.57381570E-04 -1.34920396E-04 -5.60729173E-08
 -2.13443073E-08 -2.03072644E-07 -7.00656212E-05  1.26774897E-04 -1.14639221E-04
  1.13031146E-08 -1.25460168E-03 -7.77017072E-04  5.97230911E-04 -7.35258034E-08
  6.83823087E-05  1.89929859E-05 -4.86665277E-05  8.44561897E-05  1.65388023E-08
  1.10989287E-08 -2.02963173E-05 -1.42062863E-04 -4.48819254E-05  2.72410530E-05
 -4.15011737E-09  1.30619073E-03 -4.29592261E-04  3.64558942E-04 -4.22345783E-08
  4.96044600E-06 -1.72768595E-05 -3.31391147E-05 -3.83903113E-05  4.07527402E-09
 -3.82141139E-09 -8.48238892E-05 -5.28148221E-05  1.03811965E-04  3.51912695E-05
  1.13540631E-08  2.69988506E-04 -1.21511983E-04 -1.02617519E-04 -1.03787680E-08
 -6.51442420E-05 -2.98351123E-05 -8.70804245E-05 -4.22695212E-05  3.94928406E-09
 -3.81414213E-09  4.05725856E-03  1.97798648E-04  9.73249581E-05 -1.62062929E-04
  7.04069778E-09  2.99525970E-03 -5.08561128E-04  1.22674286E-03 -2.90184027E-08
 -5.35391740E-04 -3.32893813E-04 -1.45229852E-04  1.98781554E-04 -4.45174908E-08
  1.68174246E-08  9.95763305E-01  2.65439624E-02 -4.28671049E-04 -3.14812412E-04
 -5.17807696E-08 -7.86853574E-03 -2.81134180E-03 -1.14885131E-03 -3.27221657E-07
 -9.65488227E-04 -1.66807716E-03 -2.45666057E-03  3.10584594E-04  1.90074283E-07
  5.13208393E-08 -4.72070765E-05 -3.81848668E-05 -4.72068567E-05 -3.81880197E-05
 -3.06577443E-05 -2.98547617E-05  1.35969434E-05  3.76997978E-06  1.35948613E-05
  3.75687437E-06 -6.71209023E-05 -9.11727848E-05 -2.73922416E-05  2.67722974E-04
 -4.34535195E-05  2.38729327E-03 -2.22241806E-05 -9.78549762E-05 -1.60102172E-05
  1.10262523E-05 -1.38448863E-09  4.84890848E-04  2.29627998E-04 -7.14980793E-05
  2.29235930E-08 -1.92702397E-05 -8.77252016E-05 -7.20238498E-05 -1.85418458E-05
  6.10829354E-09 -2.13915947E-09  9.95563403E-01  2.71941086E-02  1.33489111E-04
  7.79810275E-05  1.93480898E-08 -1.41516490E-02  9.72763155E-04 -1.28976772E-06
  9.26748261E-08 -1.24945120E-03 -1.52559730E-03 -2.14407743E-03  1.84636265E-04
  1.19074368E-07  4.03720665E-08  8.40593307E-03  4.44873829E-04  1.22310171E-04
 -2.56697974E-05  7.74961546E-09  2.22401624E-03 -1.27639136E-03  3.94723464E-04
 -9.81113522E-08 -3.88125521E-04 -3.46755409E-04 -5.09410597E-05  2.67644667E-04
 -3.78708332E-08  2.28861352E-08  9.45471744E-03  4.59706984E-04  7.08718263E-05
  9.74024754E-05  1.74675257E-08  2.56961558E-03 -9.03247827E-04 -1.20773690E-03
 -1.69423671E-07 -1.47137071E-04 -6.19427256E-04 -6.14028210E-05 -8.90039887E-05
 -1.27600210E-08 -2.88072621E-08  1.60412141E-02  6.04564306E-05 -1.92610593E-04
 -1.15151859E-04 -2.32095552E-08  5.46007373E-03  1.75104288E-03  1.31592203E-03
  2.27707660E-07 -3.95724719E-04 -3.28765379E-04 -1.50777150E-04 -8.48869406E-06
 -3.04862092E-08 -4.81360633E-09 -7.36948153E-05 -7.06225446E-05 -2.69158898E-05
  2.18298658E-05 -2.50768027E-09 -8.60177374E-04 -2.52586392E-04  2.10789395E-04
 -2.45845416E-08  5.03476747E-05  6.35701015E-06 -1.07409201E-05 -2.73395396E-05
  7.22611138E-09 -2.07648373E-09 -1.15963268E-04  3.75685214E-04 -1.15966715E-04
  3.75729303E-04 -7.83085792E-05 -2.94187641E-04 -1.24449308E-04  3.92036444E-04
 -1.24456469E-04  3.92084999E-04 -1.00906891E-04 -2.92121254E-04 -4.46312686E-05
  1.09501634E-04  4.82365995E-07  1.46955231E-05 -2.46250537E-05 -1.02817449E-04
 -8.47956677E-07  8.69730296E-06  1.15306730E-09  6.20566826E-04  2.06564160E-04
  1.16360617E-05  1.73598858E-08 -2.09747297E-05 -7.94813727E-05 -8.44591231E-05
  1.35182549E-05  7.28721022E-09  1.14871082E-09 -9.69294255E-03 -5.29726324E-05
  4.21120816E-05 -4.29721034E-05  4.57088666E-09  3.26375875E-03 -3.82513826E-04
  2.63539889E-03  2.70083121E-08 -1.84497148E-04 -4.99234525E-04 -9.30137262E-05
 -1.11436587E-04 -1.45481146E-08 -2.55287638E-08 -2.70323840E-03 -4.44754826E-04
 -4.74164994E-05 -1.11749745E-04 -3.69707238E-09  1.82318864E-03 -1.63802370E-04
  7.72524333E-04 -2.79466690E-08 -3.12556408E-05 -2.46437937E-05 -1.13481947E-04
 -3.33300004E-05  1.10933937E-08  1.87032264E-09  9.95695182E-01  2.86409573E-02
  3.72344676E-05 -2.13067684E-04  2.42056876E-09 -1.58796019E-02  1.50343114E-04
  9.13828223E-04  3.02332998E-08 -1.83790482E-03 -1.79812107E-03 -1.82926755E-03
 -5.23295756E-05 -1.71062751E-09 -6.18412819E-09 -1.27442337E-03 -1.58802181E-04
 -2.34253280E-05 -8.16618214E-05 -4.97979269E-09 -1.79795535E-04  1.09437677E-04
 -5.55733974E-04 -1.72213774E-09  1.14426769E-04 -1.36299384E-05 -6.85390345E-05
 -3.06450315E-05  2.30013458E-08 -1.19289341E-09  4.62700542E-05 -5.09316450E-05
 -7.72100883E-06 -4.35891825E-05 -4.74909899E-09  4.20484402E-04  3.81042942E-04
  5.35930276E-04  6.21596687E-08 -1.11826059E-04 -4.34860168E-05 -5.73751911E-05
 -2.93327169E-05 -7.45204707E-09 -2.72349411E-09 -1.01404282E-04 -3.24756138E-04
 -1.01396882E-04 -3.24799885E-04 -1.93578446E-05  2.51587680E-04  1.87096542E-04
  2.62595391E-03  1.87094518E-04  2.62596596E-03  1.19010055E-04  2.67162001E-03
 -3.08288344E-05 -9.47848283E-05 -4.38331936E-05 -6.26330809E-04 -1.07425545E-05
 -4.33513987E-05 -4.48952301E-06 -3.02036734E-06 -4.22612352E-10  2.31255519E-04
  2.45392710E-05  4.96731740E-05  2.98781704E-09 -2.91152853E-05 -2.52166106E-05
 -4.05405973E-05  2.80792842E-06  1.37630640E-09  5.80787651E-10 -8.67812054E-03
 -4.53201131E-05  1.89799303E-05  2.78300835E-05  1.27196136E-09  3.16863958E-03
  1.22110028E-03 -1.65868626E-03  9.43896792E-08 -3.65426461E-04 -3.05859615E-04
 -1.03010629E-04  1.84891715E-04 -3.07152562E-08  1.43319966E-08  9.95698979E-01
  2.85894855E-02 -8.12345431E-05  2.24345571E-04 -8.59686353E-09 -1.53775608E-02
  5.70176401E-04 -7.15409644E-04  6.58261689E-08 -1.85823707E-03 -1.80199800E-03
 -1.82863856E-03  9.58019088E-07 -3.81710463E-09 -2.07865167E-11  2.49612530E-03
 -2.74376399E-04 -1.01447617E-04  8.66544172E-05 -1.43580939E-08  1.32075392E-03
  4.19181021E-04 -5.94896607E-04  6.40663553E-08 -6.50947244E-05 -1.40005207E-05
 -1.20721034E-04 -1.95637623E-06  4.34734510E-09  5.05052422E-09 -2.02336179E-03