069_Acetaldehyde Gaussian SP Calculation on g2-node38.bme.utexas.edu    
Freq      RMP2-FC                                                     6-31G(d)            
Number of atoms                            I                7
Info1-9                                    I   N=           9
          18          17        1002           0           0         100
           6           2           1
Charge                                     I                0
Multiplicity                               I                1
Number of electrons                        I               24
Number of alpha electrons                  I               12
Number of beta electrons                   I               12
Number of basis functions                  I               53
Number of independent functions            I               53
Number of point charges in /Mol/           I                0
Number of translation vectors              I                0
Atomic numbers                             I   N=           7
           8           6           6           1           1           1
           1
Nuclear charges                            R   N=           7
  8.00000000E+00  6.00000000E+00  6.00000000E+00  1.00000000E+00  1.00000000E+00
  1.00000000E+00  1.00000000E+00
Current cartesian coordinates              R   N=          21
  2.34500719E+00 -5.24322985E-01  3.32524516E-08 -2.21141133E+00 -2.84441554E-01
 -2.96128093E-07  4.27418360E-01  7.67472554E-01 -1.09608479E-07 -3.23733445E+00
  3.90556869E-01 -1.66567399E+00 -2.14183954E+00 -2.34394222E+00 -1.71605244E-05
 -3.23732167E+00  3.90528167E-01  1.66569325E+00  5.60395942E-01  2.85925506E+00
  7.10346776E-08
Force Field                                I                0
Int Atom Types                             I   N=           7
           0           0           0           0           0           0
           0
MM charges                                 R   N=           7
  0.00000000E+00  0.00000000E+00  0.00000000E+00  0.00000000E+00  0.00000000E+00
  0.00000000E+00  0.00000000E+00
Integer atomic weights                     I   N=           7
          16          12          12           1           1           1
           1
Real atomic weights                        R   N=           7
  1.59949146E+01  1.20000000E+01  1.20000000E+01  1.00782504E+00  1.00782504E+00
  1.00782504E+00  1.00782504E+00
Atom fragment info                         I   N=           7
           0           0           0           0           0           0
           0
Atom residue num                           I   N=           7
           0           0           0           0           0           0
           0
Nuclear spins                              I   N=           7
           0           0           0           1           1           1
           1
Nuclear ZEff                               R   N=           7
 -5.60000000E+00 -3.60000000E+00 -3.60000000E+00 -1.00000000E+00 -1.00000000E+00
 -1.00000000E+00 -1.00000000E+00
Nuclear QMom                               R   N=           7
  0.00000000E+00  0.00000000E+00  0.00000000E+00  0.00000000E+00  0.00000000E+00
  0.00000000E+00  0.00000000E+00
Nuclear GFac                               R   N=           7
  0.00000000E+00  0.00000000E+00  0.00000000E+00  2.79284600E+00  2.79284600E+00
  2.79284600E+00  2.79284600E+00
MicOpt                                     I   N=           7
          -1          -1          -1          -1          -1          -1
          -1
Number of contracted shells                I               20
Number of primitive shells                 I               49
Pure/Cartesian d shells                    I                1
Pure/Cartesian f shells                    I                0
Highest angular momentum                   I                2
Largest degree of contraction              I                6
Shell types                                I   N=          20
           0          -1          -1           2           0          -1
          -1           2           0          -1          -1           2
           0           0           0           0           0           0
           0           0
Number of primitives per shell             I   N=          20
           6           3           1           1           6           3
           1           1           6           3           1           1
           3           1           3           1           3           1
           3           1
Shell to atom map                          I   N=          20
           1           1           1           1           2           2
           2           2           3           3           3           3
           4           4           5           5           6           6
           7           7
Primitive exponents                        R   N=          49
  5.48467166E+03  8.25234946E+02  1.88046958E+02  5.29645000E+01  1.68975704E+01
  5.79963534E+00  1.55396162E+01  3.59993359E+00  1.01376175E+00  2.70005823E-01
  8.00000000E-01  3.04752488E+03  4.57369518E+02  1.03948685E+02  2.92101553E+01
  9.28666296E+00  3.16392696E+00  7.86827235E+00  1.88128854E+00  5.44249258E-01
  1.68714478E-01  8.00000000E-01  3.04752488E+03  4.57369518E+02  1.03948685E+02
  2.92101553E+01  9.28666296E+00  3.16392696E+00  7.86827235E+00  1.88128854E+00
  5.44249258E-01  1.68714478E-01  8.00000000E-01  1.87311370E+01  2.82539436E+00
  6.40121692E-01  1.61277759E-01  1.87311370E+01  2.82539436E+00  6.40121692E-01
  1.61277759E-01  1.87311370E+01  2.82539436E+00  6.40121692E-01  1.61277759E-01
  1.87311370E+01  2.82539436E+00  6.40121692E-01  1.61277759E-01
Contraction coefficients                   R   N=          49
  1.83107443E-03  1.39501722E-02  6.84450781E-02  2.32714336E-01  4.70192898E-01
  3.58520853E-01 -1.10777550E-01 -1.48026263E-01  1.13076702E+00  1.00000000E+00
  1.00000000E+00  1.83473713E-03  1.40373228E-02  6.88426223E-02  2.32184443E-01
  4.67941348E-01  3.62311985E-01 -1.19332420E-01 -1.60854152E-01  1.14345644E+00
  1.00000000E+00  1.00000000E+00  1.83473713E-03  1.40373228E-02  6.88426223E-02
  2.32184443E-01  4.67941348E-01  3.62311985E-01 -1.19332420E-01 -1.60854152E-01
  1.14345644E+00  1.00000000E+00  1.00000000E+00  3.34946043E-02  2.34726953E-01
  8.13757326E-01  1.00000000E+00  3.34946043E-02  2.34726953E-01  8.13757326E-01
  1.00000000E+00  3.34946043E-02  2.34726953E-01  8.13757326E-01  1.00000000E+00
  3.34946043E-02  2.34726953E-01  8.13757326E-01  1.00000000E+00
P(S=P) Contraction coefficients            R   N=          49
  0.00000000E+00  0.00000000E+00  0.00000000E+00  0.00000000E+00  0.00000000E+00
  0.00000000E+00  7.08742682E-02  3.39752839E-01  7.27158577E-01  1.00000000E+00
  0.00000000E+00  0.00000000E+00  0.00000000E+00  0.00000000E+00  0.00000000E+00
  0.00000000E+00  0.00000000E+00  6.89990666E-02  3.16423961E-01  7.44308291E-01
  1.00000000E+00  0.00000000E+00  0.00000000E+00  0.00000000E+00  0.00000000E+00
  0.00000000E+00  0.00000000E+00  0.00000000E+00  6.89990666E-02  3.16423961E-01
  7.44308291E-01  1.00000000E+00  0.00000000E+00  0.00000000E+00  0.00000000E+00
  0.00000000E+00  0.00000000E+00  0.00000000E+00  0.00000000E+00  0.00000000E+00
  0.00000000E+00  0.00000000E+00  0.00000000E+00  0.00000000E+00  0.00000000E+00
  0.00000000E+00  0.00000000E+00  0.00000000E+00  0.00000000E+00
Coordinates of each shell                  R   N=          60
  2.34500719E+00 -5.24322985E-01  3.32524516E-08  2.34500719E+00 -5.24322985E-01
  3.32524516E-08  2.34500719E+00 -5.24322985E-01  3.32524516E-08  2.34500719E+00
 -5.24322985E-01  3.32524516E-08 -2.21141133E+00 -2.84441554E-01 -2.96128093E-07
 -2.21141133E+00 -2.84441554E-01 -2.96128093E-07 -2.21141133E+00 -2.84441554E-01
 -2.96128093E-07 -2.21141133E+00 -2.84441554E-01 -2.96128093E-07  4.27418360E-01
  7.67472554E-01 -1.09608479E-07  4.27418360E-01  7.67472554E-01 -1.09608479E-07
  4.27418360E-01  7.67472554E-01 -1.09608479E-07  4.27418360E-01  7.67472554E-01
 -1.09608479E-07 -3.23733445E+00  3.90556869E-01 -1.66567399E+00 -3.23733445E+00
  3.90556869E-01 -1.66567399E+00 -2.14183954E+00 -2.34394222E+00 -1.71605244E-05
 -2.14183954E+00 -2.34394222E+00 -1.71605244E-05 -3.23732167E+00  3.90528167E-01
  1.66569325E+00 -3.23732167E+00  3.90528167E-01  1.66569325E+00  5.60395942E-01
  2.85925506E+00  7.10346776E-08  5.60395942E-01  2.85925506E+00  7.10346776E-08
Constraint Structure                       R   N=          21
  2.34500719E+00 -5.24322985E-01  3.32524516E-08 -2.21141133E+00 -2.84441554E-01
 -2.96128093E-07  4.27418360E-01  7.67472554E-01 -1.09608479E-07 -3.23733445E+00
  3.90556869E-01 -1.66567399E+00 -2.14183954E+00 -2.34394222E+00 -1.71605244E-05
 -3.23732167E+00  3.90528167E-01  1.66569325E+00  5.60395942E-01  2.85925506E+00
  7.10346776E-08
Num ILSW                                   I              100
ILSW                                       I   N=         100
           0           1           0           0           2           0
           0           0           0           0           0          -1
           0           0           0           0           0           0
           0           0           0           0           1           0
           1           0           0           0           0           0
           0           0      100000           0          -1           0
           0           0           0           0           0           0
           0           0           0           1           1           0
           0           0           1           0           0           0
           0           0           4          40           0           0
           0           0           0           0           0           0
           0           0           0           0           0           0
           0           0           0           0           0           0
           0           0           0           0           0           0
           0           0           0           0           0           0
           0           0           0           0           0           0
           0           0           0           0
Num RLSW                                   I               40
RLSW                                       R   N=          40
  1.00000000E+00  1.00000000E+00  1.00000000E+00  1.00000000E+00  1.00000000E+00
  0.00000000E+00  0.00000000E+00  1.00000000E+00  0.00000000E+00  0.00000000E+00
  0.00000000E+00  0.00000000E+00  1.00000000E+00  0.00000000E+00  0.00000000E+00
  0.00000000E+00  0.00000000E+00  1.00000000E+00  0.00000000E+00  0.00000000E+00
  0.00000000E+00  0.00000000E+00  1.00000000E+00  0.00000000E+00  0.00000000E+00
  0.00000000E+00  0.00000000E+00  1.00000000E+00  0.00000000E+00  0.00000000E+00
  0.00000000E+00  0.00000000E+00  0.00000000E+00  0.00000000E+00  0.00000000E+00
  0.00000000E+00  0.00000000E+00  0.00000000E+00  1.00000000E+00  1.00000000E+00
MxBond                                     I                4
NBond                                      I   N=           7
           1           4           3           1           1           1
           1
IBond                                      I   N=          28
           3           0           0           0           3           4
           5           6           1           2           7           0
           2           0           0           0           2           0
           0           0           2           0           0           0
           3           0           0           0
RBond                                      R   N=          28
  2.00000000E+00  0.00000000E+00  0.00000000E+00  0.00000000E+00  1.00000000E+00
  1.00000000E+00  1.00000000E+00  1.00000000E+00  2.00000000E+00  1.00000000E+00
  1.00000000E+00  0.00000000E+00  1.00000000E+00  0.00000000E+00  0.00000000E+00
  0.00000000E+00  1.00000000E+00  0.00000000E+00  0.00000000E+00  0.00000000E+00
  1.00000000E+00  0.00000000E+00  0.00000000E+00  0.00000000E+00  1.00000000E+00
  0.00000000E+00  0.00000000E+00  0.00000000E+00
Virial Ratio                               R      2.002923275640355E+00
SCF Energy                                 R     -1.529133495905582E+02
MP2 Energy                                 R     -1.533469194839315E+02
Total Energy                               R     -1.533469194839315E+02
Post-SCF wavefunction norm                 R      1.509286547606581E+00
RMS Force                                  R      2.966644805595248E-07
RMS Density                                R      1.847311308782513E-10
External E-field                           R   N=          35
  0.00000000E+00  0.00000000E+00  0.00000000E+00  0.00000000E+00  0.00000000E+00
  0.00000000E+00  0.00000000E+00  0.00000000E+00  0.00000000E+00  0.00000000E+00
  0.00000000E+00  0.00000000E+00  0.00000000E+00  0.00000000E+00  0.00000000E+00
  0.00000000E+00  0.00000000E+00  0.00000000E+00  0.00000000E+00  0.00000000E+00
  0.00000000E+00  0.00000000E+00  0.00000000E+00  0.00000000E+00  0.00000000E+00
  0.00000000E+00  0.00000000E+00  0.00000000E+00  0.00000000E+00  0.00000000E+00
  0.00000000E+00  0.00000000E+00  0.00000000E+00  0.00000000E+00  0.00000000E+00
IOpCl                                      I                0
IROHF                                      I                0
Alpha Orbital Energies                     R   N=          53
 -2.05673512E+01 -1.13402721E+01 -1.12431307E+01 -1.38220245E+00 -1.02116390E+00
 -8.00812854E-01 -6.69267362E-01 -6.17815651E-01 -6.03084179E-01 -5.59266140E-01
 -4.95214575E-01 -4.23700722E-01  1.51161168E-01  2.46103237E-01  2.75817114E-01
  2.99907580E-01  3.03146291E-01  4.18659138E-01  4.46542289E-01  7.45931300E-01
  7.55503701E-01  7.90569036E-01  8.06076034E-01  9.07322584E-01  9.59641291E-01
  9.74450286E-01  1.10520315E+00  1.11567728E+00  1.11781890E+00  1.18611749E+00
  1.19945783E+00  1.29476165E+00  1.35367897E+00  1.47939407E+00  1.66646574E+00
  1.72089930E+00  1.80897533E+00  1.98196362E+00  2.10702431E+00  2.11030999E+00
  2.14589456E+00  2.37157970E+00  2.37306651E+00  2.48016326E+00  2.62864244E+00
  2.67894451E+00  2.88050243E+00  2.90891556E+00  3.19545424E+00  3.30374419E+00
  4.21583388E+00  4.48569581E+00  4.74952221E+00
Alpha MO coefficients                      R   N=        2809
  9.94709511E-01  2.09291337E-02 -1.26439854E-03  8.42748379E-04 -1.92046838E-11
  4.43546156E-03  4.68171945E-05 -8.96557914E-06 -7.62700453E-11 -3.67055982E-03
 -3.76643837E-03 -4.16997922E-03 -1.45103390E-04  1.48590103E-10  1.38198854E-10
  1.17187273E-06  1.36078896E-05 -1.46810246E-05  2.03740692E-05  5.53416394E-11
 -1.57449482E-04 -1.09784130E-04 -1.17299441E-04 -4.25357296E-10 -3.68209561E-05
  2.62662652E-05 -1.52188610E-05  3.90352255E-05  8.18853827E-12  3.06445438E-11
 -2.97337387E-06  4.65606359E-04 -4.16219424E-05  2.84293771E-05 -1.04570344E-11
 -1.56697100E-04 -5.10323371E-04  2.72851116E-04  9.13493401E-11 -5.38957511E-04
 -2.72606176E-04 -3.06676241E-05  3.69306291E-04 -7.40839575E-11 -9.90795207E-12
  1.54840127E-05 -2.85553776E-05  5.87447741E-06 -6.58719844E-05  1.54840181E-05
 -2.85551236E-05 -2.96811092E-05 -1.28273073E-04 -3.35343626E-04  3.69836871E-04
 -2.08003303E-04  1.55683326E-04 -5.56578991E-11 -1.44360917E-03  9.97476580E-04
 -8.51616125E-04  1.41151305E-10 -8.62199169E-05 -8.94092366E-05  2.54595872E-04
  1.11183607E-04 -1.00037193E-10 -7.93789072E-11  3.25962354E-03  2.43535904E-04
 -1.60218607E-04 -6.24968348E-05  7.14556956E-10  2.58171207E-03  1.35549608E-03
  8.84719720E-04 -4.45048983E-09 -5.15347708E-04 -2.00989164E-04 -6.67599568E-05
 -1.50248481E-04  2.76178892E-10 -7.07891802E-10  9.95763768E-01  2.65008828E-02
  4.47251155E-04 -3.80130020E-04  2.94657544E-10 -8.20600165E-03  2.28147854E-03
 -9.58252349E-04  6.02949063E-10 -1.14426787E-03 -1.61251884E-03 -2.45820019E-03
 -4.78390348E-04 -5.10381749E-11 -8.82069245E-11 -1.40522688E-04  2.67963964E-04
 -5.97953234E-05  2.60048447E-04 -1.40522509E-04  2.67972300E-04 -9.17857162E-05
  2.16220818E-03 -2.21792623E-05 -1.55074617E-04  4.11701550E-05  5.74361343E-06
 -1.96216349E-10  3.95565098E-04 -6.90208799E-06  3.13412658E-04  8.34429837E-10
 -3.01479717E-05  5.14759350E-06 -1.80473750E-04 -5.73339621E-05 -2.86110715E-10
 -1.10131143E-10  9.95688511E-01  2.87435212E-02  1.04138241E-04  2.11038382E-04
  2.34586935E-09 -1.54291807E-02 -8.64891617E-04 -5.12339630E-04 -4.69401958E-09
 -1.92764860E-03 -1.89624999E-03 -1.92751079E-03  2.79061960E-06  1.35798769E-10
  2.46444976E-11 -3.57442435E-03 -3.68363235E-05 -5.23073153E-05  7.35643728E-05
  3.54711891E-11  3.86092782E-03 -2.04722567E-03 -9.25254459E-04 -2.68211013E-10
 -5.23120295E-04 -1.79479516E-04 -1.64890278E-04 -1.34391746E-04 -1.86392267E-10
  1.09090632E-10  1.36261330E-04  2.57537810E-03  1.50120599E-04  2.47421442E-03
  1.36261780E-04  2.57538005E-03 -1.22519301E-04  2.17548639E-04 -1.95631764E-01
  4.35381757E-01 -1.11665260E-01  7.37145678E-02 -6.08949905E-09  3.90453848E-01
 -4.34467690E-02  2.69960234E-02 -3.98302610E-09  1.26080638E-02  4.26225883E-03
 -1.34648971E-03 -1.10317190E-02  7.28844569E-10 -6.09719536E-10 -1.71836903E-02
  3.19715022E-02  2.61414872E-02  4.43254598E-03  4.99433528E-09  1.46811248E-02
  4.39950587E-03 -7.60166136E-03 -1.34970619E-08  7.49566044E-03 -8.03402641E-05
 -5.11925053E-04  1.86751166E-03 -3.99167602E-09  1.03287150E-08 -1.11890007E-01
  2.13646149E-01  1.38832764E-01 -9.79111489E-02  1.25318708E-08  7.50594107E-02
 -1.37570130E-02  1.70130648E-02  3.32882571E-09  1.65491845E-02  3.27711781E-04
 -1.62714154E-02 -2.53904868E-02  1.90081130E-09 -3.76683839E-09  5.44456572E-03
  5.61918598E-04  7.88384752E-03 -2.19740471E-03  5.44457552E-03  5.61928673E-04
  2.85409820E-02 -9.41742228E-03  5.45288178E-02 -1.24501496E-01 -3.18987188E-02
 -6.83134179E-03  4.38129244E-09 -1.35993685E-01 -1.57717063E-02 -2.04991533E-03
 -9.12926002E-09  1.78677904E-03 -3.17436478E-03  6.94594110E-05  1.25502155E-05
  6.44791725E-10 -8.48737119E-10 -1.76612161E-01  3.27947000E-01  3.89810574E-02
  2.85925077E-02  9.03059426E-08  3.23030429E-01  6.00573860E-03  7.78220681E-03
  3.94372963E-08  8.85794166E-03  7.98365240E-03  7.76493701E-03  1.46573630E-03
  5.09618800E-09 -5.77046378E-09 -8.12365381E-02  1.68808318E-01 -1.75461564E-01
  6.99852155E-03 -5.73938121E-10  1.15068334E-01 -3.32252056E-02  1.68262957E-02
  1.32865068E-08  1.03779691E-02  4.35562298E-03 -6.06191106E-03  1.51840166E-02
  1.42699575E-09  9.66075388E-10  1.11982622E-01  2.27779666E-02  1.03666325E-01
  1.78763831E-02  1.11982595E-01  2.27779621E-02  5.39687029E-02  6.52042491E-03
  7.10392953E-02 -1.64886299E-01 -9.49068773E-02  1.58550098E-01  7.66218338E-09
 -2.22076487E-01 -5.11099273E-02  8.08919790E-02  1.77579648E-10  1.91714921E-04
  5.46410880E-03 -1.98054123E-03 -1.11321231E-02 -5.44038587E-10 -1.57024586E-09
  7.19237706E-02 -1.31334393E-01  1.26899627E-01  9.65666699E-02 -4.67069903E-08
 -1.91128975E-01  3.75215351E-02  1.99432560E-02 -1.81078266E-08  9.22391234E-03
 -9.01724204E-03 -9.17217086E-03  1.20831887E-02  2.55153941E-08 -5.26163567E-08
 -1.34709093E-01  2.84104552E-01  1.96929982E-03  1.90273535E-01  1.49466482E-08
  2.79937395E-01 -3.82963952E-02  8.77025876E-02  1.31074820E-08 -4.55856299E-03
  1.98655870E-02 -1.09058176E-02  2.28825480E-03  1.78901810E-09  2.83115309E-09
 -7.30068666E-02 -3.14974278E-02 -1.04940703E-01 -5.16994915E-02 -7.30071667E-02
 -3.14976748E-02  2.06247650E-01  9.08903044E-02 -5.17259012E-02  1.18687922E-01
  3.68093259E-01  5.74130858E-02  1.12642081E-07  2.05387280E-01  2.12284271E-01
  3.68989752E-02  8.26971976E-08 -2.55054114E-02  1.17639401E-02  4.00621107E-03
  6.36951312E-03 -4.90343457E-09  4.40252547E-09 -1.39599975E-02  2.13329558E-02
 -2.16347170E-01  1.07882094E-01  3.43310732E-08  4.32698610E-02 -9.35799613E-02
  6.83817752E-02  1.48999470E-07 -1.05381028E-02 -3.76200055E-03  1.65938003E-02
 -6.94714744E-03  1.11424113E-07 -2.77165968E-07  3.92068152E-02 -9.76769673E-02
  2.70469141E-02  3.24283688E-01  6.22833802E-08 -3.64234131E-02  3.99781666E-02
  9.57167076E-02 -4.27541757E-09 -7.14106610E-04  5.85744644E-03  4.14460125E-03
  6.58586418E-03  7.53332708E-09 -9.31069345E-09  9.71148848E-02  6.25300345E-02
 -5.29413083E-02 -2.27078559E-02  9.71132434E-02  6.25288461E-02  1.33467750E-01
  1.00242332E-01  4.87915288E-02 -1.06766635E-01 -1.94600719E-01  3.79435540E-01
  2.55113850E-07 -2.29781311E-01 -1.05767238E-01  2.26094755E-01  1.60448922E-07
  5.80955694E-03  1.49309277E-02 -3.46909096E-03 -2.15933523E-02 -1.86236430E-08
  1.12572867E-08 -1.33086173E-02  2.06286605E-02 -2.28730739E-01 -1.54755223E-01
  5.73494316E-07  5.65941544E-02 -1.05393378E-01 -8.53604487E-02  1.67897543E-07
 -1.30379267E-02  1.04407606E-02  8.63854083E-03 -1.39088069E-02 -6.80571072E-08
  1.18802001E-07  4.53320236E-03  7.90503266E-04  3.71180618E-01 -1.66171941E-02
  2.74789242E-07 -6.60728999E-02  1.01217391E-01  2.38349941E-02  1.46413486E-07
  5.22324188E-03 -7.49816485E-03 -3.59322352E-03 -1.46513160E-02 -4.16935114E-09
 -1.16811639E-08  5.46406760E-02  4.00623382E-02  1.02523144E-01  5.29104396E-02
  5.46416969E-02  4.00631573E-02 -5.73771887E-03 -1.04117231E-02 -6.55976237E-08
  2.43026415E-07  3.99203748E-07 -4.22507908E-07  1.79121550E-01  3.74011766E-10
  3.58630788E-07 -2.98368113E-07  1.19590431E-01  1.77120941E-08  2.20717835E-08
  4.60369864E-08  3.41466074E-08 -1.43322215E-02  9.29842680E-03  7.48715698E-08
 -1.70905494E-07  4.98582801E-07  9.33319393E-08  3.92008572E-01 -1.99805137E-07
  2.17995546E-07  1.78582657E-07  2.08310636E-01 -9.90517322E-08 -5.52740432E-07
  6.42955628E-07  2.75814555E-07 -2.00780541E-02  2.15236634E-02 -5.02915711E-09
 -3.91206114E-08 -5.23795777E-07  2.29862000E-08  1.78784373E-01  3.73694099E-07
 -1.28332956E-08 -1.27283804E-07  9.00750268E-02 -1.18990309E-08 -2.56880314E-08
  3.27651391E-08  3.50452601E-08 -2.01214826E-04 -9.63446609E-03 -2.03900997E-01
 -1.53748397E-01 -2.15332704E-06 -1.47236834E-06  2.03902904E-01  1.53749760E-01
 -5.60580892E-09 -8.65704608E-08  1.09628763E-02 -1.98930137E-02 -2.10749680E-01
  1.23071224E-02  2.67887593E-07 -7.79778153E-02 -1.26733080E-01  5.54592497E-03
  2.25167602E-07  1.40038160E-02 -3.62539517E-03 -6.48105769E-04 -5.14075515E-03
 -2.06857981E-08  1.07017685E-08  3.66538268E-03 -9.23473940E-03 -1.29405323E-01
  3.78017653E-01  1.15079672E-07 -1.32161765E-02 -7.20891246E-02  2.24977909E-01
  2.06468632E-07  1.08608564E-02 -3.27944012E-02  2.20043316E-02 -6.26256952E-03
  2.76694627E-07 -6.72935552E-07 -3.81639493E-04  7.96657090E-03  4.45030430E-02
 -1.69044309E-01  2.00243352E-07 -3.56658779E-02  3.98232202E-03 -8.18025282E-02
  6.31891816E-08  1.05977543E-02 -1.67021750E-02 -1.01900529E-03 -1.88215439E-02
  3.02513490E-08 -5.50428986E-08  1.22108898E-01  9.70726209E-02 -2.56053674E-01
 -1.89811813E-01  1.22104878E-01  9.70693015E-02 -1.06542711E-01 -8.77154652E-02
 -6.34474541E-09 -7.92972360E-08 -2.55490475E-08 -9.75134582E-08  4.67889778E-01
  3.81916144E-07 -1.52720095E-07 -3.38439998E-08  3.45118121E-01 -1.78395175E-08
 -3.95850564E-08 -3.93007252E-08  1.94994829E-09 -3.12233774E-02  2.09667874E-02
 -2.72091087E-08  4.65201785E-08  2.22590536E-08 -2.60030922E-07 -1.92029544E-01
  1.36766892E-07  1.95447922E-07 -6.47917223E-07 -1.15238539E-01  5.53462791E-08
  3.28168346E-07 -3.90305582E-07 -1.39354901E-07  2.05889879E-02 -9.66960833E-03
  8.16506196E-11  9.31832754E-09 -6.50384152E-08  4.46365825E-08  2.64966899E-01
 -2.05673068E-07 -2.06973253E-07  2.52088375E-07  1.85761663E-01 -1.97409086E-08
  3.71808755E-08 -1.04732351E-08  5.17111723E-09  3.35620673E-02 -1.79282347E-02
  1.17419817E-01  1.15685741E-01  1.35010621E-06  8.04923071E-07 -1.17421236E-01
 -1.15686703E-01  7.23877227E-08  6.45391603E-08 -8.10088580E-05  4.19291275E-03
  3.04306826E-01  4.46708256E-01  1.92813270E-07 -1.63912202E-02  2.41700585E-01
  3.49633271E-01  1.21323701E-07 -1.36904266E-02  1.55527886E-02  1.53016515E-03
 -7.13524827E-03 -2.88251582E-10  1.12407575E-09 -3.02964353E-02  5.78768915E-02
  2.31729733E-01  8.13789476E-02 -2.46269712E-07  1.99001567E-01  1.51604251E-01
  5.70135702E-02 -6.66111126E-07  1.01623497E-02 -6.35698461E-03 -5.31116564E-03
  9.49377778E-03  1.74515169E-08 -3.63772708E-09 -4.16180653E-03  2.15946196E-02
 -1.27085032E-01 -1.64525177E-01 -1.12048021E-07 -1.89568517E-02  9.82444704E-03
 -4.15374134E-02  3.87412549E-08  4.52217175E-02 -4.90354335E-02  1.46115500E-03
  1.89048440E-02  1.76296799E-08 -6.97909190E-09 -3.75457122E-02 -5.70284077E-02
 -3.24393755E-02 -8.24568060E-02 -3.75457158E-02 -5.70278762E-02 -1.82263693E-01
 -2.36645992E-01 -1.76519081E-08  1.61176602E-08  4.05889687E-08  3.44087375E-07
 -3.68483988E-01  1.52973765E-07  3.85775227E-08  4.43544611E-07 -5.02067836E-01
 -1.66282360E-08  1.46819331E-08 -2.96802070E-08  4.01023234E-09  6.36339106E-04
 -3.59510175E-04 -3.56465650E-08  1.02067567E-07  5.59184886E-08  2.72755193E-07
  3.49220997E-03  2.43588406E-07 -7.99524298E-07  2.87218959E-06  1.07257859E-01
  5.00273933E-08  2.31502104E-07 -2.64464745E-07 -1.06237469E-07  3.54266432E-02
  5.49851655E-03  6.26078211E-08  6.24472544E-08 -1.18168881E-07 -1.10214436E-07
  4.25761605E-01 -1.31927437E-06 -1.15260840E-07 -8.73545744E-07  6.72694013E-01
  6.42823109E-08  3.27475209E-08 -4.14586166E-08 -2.44608588E-08 -2.57358709E-02
  1.74378794E-02  9.36627837E-02  3.12781274E-01  1.08315918E-06  6.40663293E-06
 -9.36638348E-02 -3.12788105E-01 -2.73431799E-08  8.07987201E-07 -1.08340051E-02
  1.47470293E-02 -3.97948084E-02 -5.71402568E-02  2.14610844E-07  1.62723881E-01
 -1.24759816E-01 -7.58428205E-02  2.20941182E-07  3.12666688E-03 -5.03396033E-03
 -4.63394358E-03 -4.87623192E-03  2.13471492E-09 -9.77985478E-09 -1.24767479E-01
  7.75888282E-02 -1.80477793E-01  1.82806798E-02  4.19022799E-07  2.33641613E+00
 -6.19008572E-01 -1.47058188E-02  2.40111719E-06 -5.42619576E-03 -7.09959118E-03
 -1.45914282E-02  5.29853265E-03 -4.84861605E-08  5.71980759E-08 -2.37815002E-02
  8.54986398E-02 -3.44925183E-03  1.14590033E-01 -1.62918013E-07  2.00769802E-01
  4.14723252E-02  4.30166954E-01 -6.25192775E-07  4.80324916E-03  7.39425520E-03
 -3.19890519E-03  6.40427216E-04  3.90091899E-10  2.04309841E-08 -7.61108617E-03
 -1.29930014E+00  8.03831371E-04 -7.44575499E-01 -7.61089132E-03 -1.29929769E+00
  3.42088874E-02 -6.26594448E-01  1.40049940E-03  2.45928265E-02 -1.18583176E-02
  3.88807509E-02  3.71270830E-07 -1.52702857E-01  4.41680252E-02  1.08762102E-01
  1.82490664E-06  1.22743356E-02  8.41210748E-03  4.58071275E-03  2.56709271E-03
 -1.16248995E-07 -6.43411144E-08 -7.92366990E-02  6.17912222E-02  7.07701363E-02
 -9.33774124E-02  3.76241272E-06  1.40083275E+00  3.10762995E-01 -9.91384180E-02
  1.85645699E-05  5.23348703E-04 -1.11181555E-02  1.47702481E-03 -1.20254952E-02
  4.42260530E-08 -2.52013863E-07  9.89554190E-02 -9.01896414E-02  4.39545397E-02
 -2.42816520E-01 -7.56751452E-07 -1.72657620E+00  3.68830209E-01 -8.04607529E-01
 -5.90865289E-06  4.27648205E-03  9.97937306E-03  3.00869844E-03  9.43475289E-03
 -8.49486728E-08 -2.54218434E-07  1.57049615E-02 -2.01278688E-01 -2.35519452E-02
 -9.66524544E-01  1.57036712E-02 -2.01323182E-01  4.80330525E-02  1.83613247E+00
 -2.50345494E-02  3.12008669E-02 -7.20798227E-02  9.07970020E-02  2.01598181E-06
  3.24056356E-01 -1.44932184E-01  1.90598585E-01  3.43933471E-06 -7.67849907E-03
 -2.02305655E-03 -1.55758993E-02 -3.33912827E-03 -1.97232141E-08  9.49441309E-09
 -3.14230888E-03  4.34666958E-03 -2.33352443E-02  2.61557541E-01  4.54550979E-06
 -7.80353424E-02 -2.51762788E-01  1.43831974E+00  2.20052131E-05 -8.25871553E-03
  2.18435858E-02 -1.07110983E-02 -3.92571095E-03 -2.25130078E-07  1.81407835E-07
  6.00214759E-02 -4.41137679E-02  1.37055579E-03 -5.56617132E-02 -1.94622269E-06
 -1.16265174E+00 -1.29510383E-01 -3.80353221E-01 -8.08390387E-06  2.13398206E-02
 -3.31491490E-03 -7.87217221E-03 -1.95564208E-02 -5.66568072E-08 -1.05846099E-07
 -3.42302364E-02 -7.35037600E-01  9.02338703E-02  1.82039764E+00 -3.42296436E-02
 -7.35054508E-01 -1.54095457E-02  8.13241428E-01  1.32170629E-08 -1.25124149E-06
  1.24542270E-06 -7.58352262E-07  5.08509959E-02  6.04622864E-06 -8.36609023E-07
 -1.63384001E-06  1.66369290E-01 -2.94619423E-07 -3.73560548E-07 -3.44741008E-07
 -4.21020314E-08 -8.08156655E-03 -3.63328255E-03  1.13855241E-06 -9.49215362E-07
  2.23302597E-07 -2.90797987E-06  3.35200946E-01 -1.97363893E-05  1.54709285E-06
 -2.30784893E-05  1.56056571E+00  1.57891006E-07  9.33229710E-08 -1.44723317E-07
  1.54266478E-07  1.77970442E-03 -1.01551668E-02 -1.95899372E-06  2.42476344E-06
 -1.12861149E-06  3.87490515E-06 -6.45624468E-02  3.17573539E-05 -9.26974280E-06
  1.95157079E-05 -4.96862720E-01 -2.35590442E-07  9.55456240E-08 -4.70510946E-08
  1.83471360E-07 -8.66256680E-03 -1.93742221E-02  3.04983472E-02  1.61190817E+00
 -4.09769058E-07  6.30409636E-07 -3.04983441E-02 -1.61189371E+00 -2.12845191E-07
 -3.53166847E-05  5.92144363E-02 -2.96693485E-02 -2.22558568E-02 -1.05771820E-01
  2.35763779E-07 -1.29571441E+00  1.90263872E-01 -5.67561342E-01  3.93892491E-07
  7.98243417E-03  2.98467726E-02  3.62420145E-02  2.74515041E-02 -1.98504121E-09
  3.90006075E-09 -6.06882438E-02 -2.24681623E-02  2.50075870E-02  1.30622921E-01
  1.22375715E-06  1.78330812E+00  1.56636038E+00  9.31337268E-01  3.61015584E-06
 -2.09474958E-02 -8.80013182E-03  1.91502459E-02 -2.24718652E-02  1.03404833E-07
 -1.64593396E-07  3.42140634E-02 -8.76588352E-02  2.90836465E-01  1.81626913E-01
 -7.59455806E-08 -5.09670776E-01  2.36291954E+00  3.28622305E-01 -8.54929614E-07
 -2.63624745E-03 -2.27453890E-03  6.35832099E-04 -1.74760886E-03 -3.79071425E-08
 -5.13419586E-08  8.94449885E-02 -3.07893355E-02 -2.18516725E-03  4.13808655E-01
  8.94439702E-02 -3.07938347E-02  4.08024060E-03 -6.48596109E-01  9.50325707E-02
 -4.19105901E-02  1.25369379E-01 -2.35524519E-02  4.81212244E-07 -2.08743302E+00
  8.64671608E-01 -3.22655700E-01  5.48866223E-07  1.11370826E-02  3.29607121E-02