
    -----------------------------------------------------------------------
          Psi4: An Open-Source Ab Initio Electronic Structure Package
                               Psi4 1.4a3.dev225 

                         Git: Rev {master} 7105e37 


    D. G. A. Smith, L. A. Burns, A. C. Simmonett, R. M. Parrish,
    M. C. Schieber, R. Galvelis, P. Kraus, H. Kruse, R. Di Remigio,
    A. Alenaizan, A. M. James, S. Lehtola, J. P. Misiewicz, M. Scheurer,
    R. A. Shaw, J. B. Schriber, Y. Xie, Z. L. Glick, D. A. Sirianni,
    J. S. O'Brien, J. M. Waldrop, A. Kumar, E. G. Hohenstein,
    B. P. Pritchard, B. R. Brooks, H. F. Schaefer III, A. Yu. Sokolov,
    K. Patkowski, A. E. DePrince III, U. Bozkaya, R. A. King,
    F. A. Evangelista, J. M. Turney, T. D. Crawford, C. D. Sherrill,
    J. Chem. Phys. 152(18) 184108 (2020). https://doi.org/10.1063/5.0006002

                            Additional Code Authors
    E. T. Seidl, C. L. Janssen, E. F. Valeev, M. L. Leininger,
    J. F. Gonthier, R. M. Richard, H. R. McAlexander, M. Saitow, X. Wang,
    P. Verma, and M. H. Lechner

             Previous Authors, Complete List of Code Contributors,
                       and Citations for Specific Modules
    https://github.com/psi4/psi4/blob/master/codemeta.json
    https://github.com/psi4/psi4/graphs/contributors
    http://psicode.org/psi4manual/master/introduction.html#citing-psifour

    -----------------------------------------------------------------------


    Psi4 started on: Friday, 19 March 2021 07:36AM

    Process ID: 4893
    Host:       c466-083.stampede2.tacc.utexas.edu
    PSIDATADIR: /home1/07844/xy3866/miniconda3/envs/p4env/share/psi4
    Memory:     500.0 MiB
    Threads:    32
    
  ==> Input File <==

--------------------------------------------------------------------------
#psi4
#
memory 32 gb

molecule  {
1 1
  N        0.0000000     0.2689290     0.0000000
  C        1.2460017    -0.5356706     0.0288797
  C       -1.2628000    -0.5465180    -0.0292690
  C        2.4835250     0.3513150    -0.0125090
  C       -2.4835250     0.3513150     0.0125090
  H       -0.0180190     0.8910490     0.8188120
  H        0.0180190     0.8910490    -0.8188120
  H        1.2213520    -1.1422140     0.9417860
  H        1.2165880    -1.2139890    -0.8318790
  H       -1.2213520    -1.1422140    -0.9417860
  H       -1.2165880    -1.2139890     0.8318790
  H        3.3791030    -0.2727590     0.0143590
  H        2.5088070     0.9427720    -0.9309290
  H        2.5122610     1.0251090     0.8471220
  H       -3.3791030    -0.2727590    -0.0143590
  H       -2.5088070     0.9427720     0.9309290
  H       -2.5122610     1.0251090    -0.8471220
units angstrom
no_reorient  #important for SAPT in psi4, default
symmetry c1  #important for SAPT in psi4, default
}

set PROPERTIES_ORIGIN ["COM"]
properties('MP2/aug-cc-pvtz', properties = ['dipole'])
--------------------------------------------------------------------------

  Memory set to  29.802 GiB by Python driver.
    SCF Algorithm Type (re)set to DF.

*** tstart() called on c466-083.stampede2.tacc.utexas.edu
*** at Fri Mar 19 07:40:17 2021

   => Loading Basis Set <=

    Name: AUG-CC-PVTZ
    Role: ORBITAL
    Keyword: BASIS
    atoms 1    entry N          line   285 file /home1/07844/xy3866/miniconda3/envs/p4env/share/psi4/basis/aug-cc-pvtz.gbs 
    atoms 2-5  entry C          line   239 file /home1/07844/xy3866/miniconda3/envs/p4env/share/psi4/basis/aug-cc-pvtz.gbs 
    atoms 6-17 entry H          line    40 file /home1/07844/xy3866/miniconda3/envs/p4env/share/psi4/basis/aug-cc-pvtz.gbs 


         ---------------------------------------------------------
                                   SCF
               by Justin Turney, Rob Parrish, Andy Simmonett
                          and Daniel G. A. Smith
                              RHF Reference
                       32 Threads,  30517 MiB Core
         ---------------------------------------------------------

  ==> Geometry <==

    Molecular point group: c1
    Full point group: C1

    Geometry (in Angstrom), charge = 1, multiplicity = 1:

       Center              X                  Y                   Z               Mass       
    ------------   -----------------  -----------------  -----------------  -----------------
         N            0.002720483551     0.273319671815     0.000063047109    14.003074004430
         C            1.248722183551    -0.531279928185     0.028942747109    12.000000000000
         C           -1.260079516449    -0.542127328185    -0.029205952891    12.000000000000
         C            2.486245483551     0.355705671815    -0.012445952891    12.000000000000
         C           -2.480804516449     0.355705671815     0.012572047109    12.000000000000
         H           -0.015298516449     0.895439671815     0.818875047109     1.007825032230
         H            0.020739483551     0.895439671815    -0.818748952891     1.007825032230
         H            1.224072483551    -1.137823328185     0.941849047109     1.007825032230
         H            1.219308483551    -1.209598328185    -0.831815952891     1.007825032230
         H           -1.218631516449    -1.137823328185    -0.941722952891     1.007825032230
         H           -1.213867516449    -1.209598328185     0.831942047109     1.007825032230
         H            3.381823483551    -0.268368328185     0.014422047109     1.007825032230
         H            2.511527483551     0.947162671815    -0.930865952891     1.007825032230
         H            2.514981483551     1.029499671815     0.847185047109     1.007825032230
         H           -3.376382516449    -0.268368328185    -0.014295952891     1.007825032230
         H           -2.506086516449     0.947162671815     0.930992047109     1.007825032230
         H           -2.509540516449     1.029499671815    -0.847058952891     1.007825032230

  Running in c1 symmetry.

  Rotational constants: A =      0.56168  B =      0.06798  C =      0.06423 [cm^-1]
  Rotational constants: A =  16838.80998  B =   2038.13210  C =   1925.46609 [MHz]
  Nuclear repulsion =  198.075407026862962

  Charge       = 1
  Multiplicity = 1
  Electrons    = 42
  Nalpha       = 21
  Nbeta        = 21

  ==> Algorithm <==

  SCF Algorithm Type is DF.
  DIIS enabled.
  MOM disabled.
  Fractional occupation disabled.
  Guess Type is SAD.
  Energy threshold   = 1.00e-10
  Density threshold  = 1.00e-10
  Integral threshold = 1.00e-12

  ==> Primary Basis <==

  Basis Set: AUG-CC-PVTZ
    Blend: AUG-CC-PVTZ
    Number of shells: 178
    Number of basis functions: 506
    Number of Cartesian functions: 575
    Spherical Harmonics?: true
    Max angular momentum: 3

   => Loading Basis Set <=

    Name: (AUG-CC-PVTZ AUX)
    Role: JKFIT
    Keyword: DF_BASIS_SCF
    atoms 1    entry N          line   224 file /home1/07844/xy3866/miniconda3/envs/p4env/share/psi4/basis/aug-cc-pvtz-jkfit.gbs 
    atoms 2-5  entry C          line   162 file /home1/07844/xy3866/miniconda3/envs/p4env/share/psi4/basis/aug-cc-pvtz-jkfit.gbs 
    atoms 6-17 entry H          line    70 file /home1/07844/xy3866/miniconda3/envs/p4env/share/psi4/basis/aug-cc-pvtz-jkfit.gbs 

  ==> Integral Setup <==

  DFHelper Memory: AOs need 2.049 GiB; user supplied 22.352 GiB. Using in-core AOs.

  ==> MemDFJK: Density-Fitted J/K Matrices <==

    J tasked:                   Yes
    K tasked:                   Yes
    wK tasked:                   No
    OpenMP threads:              32
    Memory [MiB]:             22888
    Algorithm:                 Core
    Schwarz Cutoff:           1E-12
    Mask sparsity (%):       5.7304
    Fitting Condition:        1E-10

   => Auxiliary Basis Set <=

  Basis Set: (AUG-CC-PVTZ AUX)
    Blend: AUG-CC-PVTZ-JKFIT
    Number of shells: 318
    Number of basis functions: 1072
    Number of Cartesian functions: 1315
    Spherical Harmonics?: true
    Max angular momentum: 4

  Minimum eigenvalue in the overlap matrix is 5.6201699612E-06.
  Reciprocal condition number of the overlap matrix is 2.7771613302E-07.
    Using symmetric orthogonalization.

  ==> Pre-Iterations <==

  SCF Guess: Superposition of Atomic Densities via on-the-fly atomic UHF (no occupation information).

   -------------------------
    Irrep   Nso     Nmo    
   -------------------------
     A        506     506 
   -------------------------
    Total     506     506
   -------------------------

  ==> Iterations <==

                           Total Energy        Delta E     RMS |[F,P]|

   @DF-RHF iter SAD:  -212.64145510816718   -2.12641e+02   0.00000e+00 
   @DF-RHF iter   1:  -212.58182855513084    5.96266e-02   1.08799e-03 DIIS
   @DF-RHF iter   2:  -212.75513787379469   -1.73309e-01   3.93764e-04 DIIS
   @DF-RHF iter   3:  -212.77685316963857   -2.17153e-02   9.80132e-05 DIIS
   @DF-RHF iter   4:  -212.77928116013695   -2.42799e-03   1.62292e-05 DIIS
   @DF-RHF iter   5:  -212.77934680096834   -6.56408e-05   5.35491e-06 DIIS
   @DF-RHF iter   6:  -212.77935239027369   -5.58931e-06   1.56739e-06 DIIS
   @DF-RHF iter   7:  -212.77935281418638   -4.23913e-07   3.91053e-07 DIIS
   @DF-RHF iter   8:  -212.77935285750340   -4.33170e-08   8.64221e-08 DIIS
   @DF-RHF iter   9:  -212.77935285977696   -2.27357e-09   2.23268e-08 DIIS
   @DF-RHF iter  10:  -212.77935285987988   -1.02915e-10   5.33928e-09 DIIS
   @DF-RHF iter  11:  -212.77935285988707   -7.19069e-12   8.35304e-10 DIIS
   @DF-RHF iter  12:  -212.77935285988758   -5.11591e-13   1.80739e-10 DIIS
   @DF-RHF iter  13:  -212.77935285988752    5.68434e-14   6.31407e-11 DIIS
  Energy and wave function converged.


  ==> Post-Iterations <==

    Orbital Energies [Eh]
    ---------------------

    Doubly Occupied:                                                      

       1A    -15.872040     2A    -11.464781     3A    -11.462923  
       4A    -11.391946     5A    -11.391199     6A     -1.505549  
       7A     -1.236454     8A     -1.176358     9A     -1.061997  
      10A     -1.033127    11A     -0.969222    12A     -0.854426  
      13A     -0.838187    14A     -0.801869    15A     -0.772618  
      16A     -0.739613    17A     -0.703426    18A     -0.698854  
      19A     -0.687671    20A     -0.684782    21A     -0.678361  

    Virtual:                                                              

      22A     -0.096623    23A     -0.077532    24A     -0.074784  
      25A     -0.063978    26A     -0.047807    27A     -0.043544  
      28A     -0.042267    29A     -0.040913    30A     -0.037683  
      31A     -0.023446    32A     -0.018765    33A     -0.016611  
      34A     -0.012622    35A      0.002942    36A      0.007127  
      37A      0.012725    38A      0.013542    39A      0.020208  
      40A      0.028445    41A      0.033284    42A      0.038130  
      43A      0.039234    44A      0.039626    45A      0.045607  
      46A      0.054243    47A      0.055140    48A      0.062726  
      49A      0.071186    50A      0.077481    51A      0.080379  
      52A      0.085731    53A      0.086197    54A      0.101049  
      55A      0.106992    56A      0.108190    57A      0.119791  
      58A      0.121196    59A      0.131029    60A      0.140683  
      61A      0.148143    62A      0.158318    63A      0.162066  
      64A      0.175307    65A      0.190232    66A      0.197514  
      67A      0.208401    68A      0.209154    69A      0.212452  
      70A      0.215680    71A      0.222838    72A      0.224237  
      73A      0.235862    74A      0.236164    75A      0.236770  
      76A      0.239373    77A      0.244172    78A      0.244296  
      79A      0.246872    80A      0.257224    81A      0.263310  
      82A      0.267839    83A      0.269177    84A      0.273307  
      85A      0.276688    86A      0.283772    87A      0.285567  
      88A      0.291752    89A      0.293997    90A      0.297169  
      91A      0.304263    92A      0.309276    93A      0.313638  
      94A      0.320007    95A      0.323867    96A      0.333870  
      97A      0.336318    98A      0.338047    99A      0.356969  
     100A      0.358953   101A      0.367518   102A      0.369352  
     103A      0.380487   104A      0.381633   105A      0.386154  
     106A      0.387937   107A      0.400035   108A      0.402194  
     109A      0.412977   110A      0.419406   111A      0.420797  
     112A      0.422807   113A      0.429711   114A      0.434998  
     115A      0.463807   116A      0.470617   117A      0.477205  
     118A      0.479851   119A      0.494162   120A      0.500066  
     121A      0.510283   122A      0.515475   123A      0.523874  
     124A      0.550982   125A      0.552899   126A      0.557579  
     127A      0.568382   128A      0.582287   129A      0.607901  
     130A      0.609824   131A      0.613095   132A      0.618913  
     133A      0.653631   134A      0.659188   135A      0.664081  
     136A      0.668166   137A      0.672831   138A      0.679864  
     139A      0.691410   140A      0.693956   141A      0.697010  
     142A      0.705881   143A      0.725224   144A      0.735576  
     145A      0.736321   146A      0.749742   147A      0.750255  
     148A      0.752282   149A      0.755909   150A      0.758510  
     151A      0.770186   152A      0.773836   153A      0.775601  
     154A      0.780961   155A      0.788312   156A      0.795239  
     157A      0.810050   158A      0.816760   159A      0.823852  
     160A      0.830332   161A      0.841169   162A      0.852778  
     163A      0.859275   164A      0.864895   165A      0.886447  
     166A      0.888077   167A      0.894622   168A      0.905090  
     169A      0.907162   170A      0.924028   171A      0.930287  
     172A      0.936589   173A      0.941832   174A      0.965169  
     175A      0.968229   176A      0.970779   177A      0.972350  
     178A      0.992030   179A      0.992558   180A      1.001366  
     181A      1.004164   182A      1.011993   183A      1.016920  
     184A      1.030850   185A      1.038777   186A      1.039555  
     187A      1.046499   188A      1.056518   189A      1.072532  
     190A      1.077979   191A      1.087215   192A      1.100690  
     193A      1.113211   194A      1.119253   195A      1.124279  
     196A      1.130438   197A      1.138986   198A      1.139414  
     199A      1.156469   200A      1.157923   201A      1.168679  
     202A      1.172858   203A      1.175143   204A      1.190233  
     205A      1.211441   206A      1.213511   207A      1.222490  
     208A      1.233884   209A      1.243651   210A      1.262321  
     211A      1.279686   212A      1.290373   213A      1.296608  
     214A      1.307927   215A      1.309964   216A      1.326246  
     217A      1.363275   218A      1.367542   219A      1.384899  
     220A      1.387290   221A      1.405443   222A      1.411197  
     223A      1.422856   224A      1.425816   225A      1.438837  
     226A      1.441559   227A      1.459769   228A      1.462723  
     229A      1.477749   230A      1.481068   231A      1.505242  
     232A      1.507315   233A      1.509650   234A      1.516018  
     235A      1.521386   236A      1.527287   237A      1.533179  
     238A      1.539185   239A      1.564178   240A      1.565939  
     241A      1.567240   242A      1.573812   243A      1.585288  
     244A      1.598012   245A      1.607587   246A      1.622118  
     247A      1.625676   248A      1.629549   249A      1.639317  
     250A      1.654913   251A      1.660423   252A      1.662259  
     253A      1.684849   254A      1.713015   255A      1.726396  
     256A      1.730135   257A      1.742192   258A      1.751739  
     259A      1.755686   260A      1.776060   261A      1.777089  
     262A      1.796310   263A      1.797808   264A      1.823433  
     265A      1.827670   266A      1.831808   267A      1.850170  
     268A      1.859704   269A      1.885737   270A      1.892704  
     271A      1.907549   272A      1.910402   273A      1.920409  
     274A      1.953612   275A      1.971848   276A      1.986990  
     277A      1.995351   278A      2.008597   279A      2.049136  
     280A      2.050243   281A      2.055609   282A      2.069876  
     283A      2.075527   284A      2.080911   285A      2.085472  
     286A      2.101625   287A      2.102322   288A      2.108723  
     289A      2.114178   290A      2.145426   291A      2.164240  
     292A      2.189761   293A      2.193785   294A      2.217002  
     295A      2.235743   296A      2.255123   297A      2.259650  
     298A      2.300861   299A      2.305805   300A      2.328977  
     301A      2.333722   302A      2.345791   303A      2.385446  
     304A      2.397943   305A      2.419666   306A      2.437888  
     307A      2.446978   308A      2.468155   309A      2.502092  
     310A      2.507844   311A      2.643397   312A      2.703496  
     313A      2.704368   314A      2.738555   315A      2.744671  
     316A      2.837890   317A      2.880532   318A      3.046228  
     319A      3.074670   320A      3.115905   321A      3.172773  
     322A      3.230802   323A      3.254418   324A      3.276746  
     325A      3.285512   326A      3.303456   327A      3.318958  
     328A      3.340356   329A      3.379915   330A      3.391504  
     331A      3.446955   332A      3.452928   333A      3.468178  
     334A      3.477336   335A      3.487632   336A      3.490431  
     337A      3.499174   338A      3.508062   339A      3.527197  
     340A      3.532900   341A      3.549312   342A      3.553859  
     343A      3.562391   344A      3.573675   345A      3.577894  
     346A      3.593439   347A      3.604000   348A      3.605944  
     349A      3.619617   350A      3.641823   351A      3.652932  
     352A      3.677217   353A      3.723234   354A      3.724824  
     355A      3.739668   356A      3.742581   357A      3.791597  
     358A      3.795870   359A      3.798292   360A      3.804823  
     361A      3.816023   362A      3.819526   363A      3.839568  
     364A      3.846584   365A      3.875734   366A      3.897115  
     367A      3.901309   368A      3.945554   369A      3.950172  
     370A      3.970040   371A      3.979672   372A      3.986557  
     373A      4.003275   374A      4.017907   375A      4.027998  
     376A      4.032722   377A      4.044603   378A      4.056448  
     379A      4.072839   380A      4.073903   381A      4.106205  
     382A      4.109758   383A      4.130952   384A      4.140478  
     385A      4.144160   386A      4.201149   387A      4.212103  
     388A      4.241621   389A      4.271259   390A      4.280833  
     391A      4.282543   392A      4.332472   393A      4.361508  
     394A      4.364884   395A      4.375193   396A      4.395884  
     397A      4.411147   398A      4.431931   399A      4.445675  
     400A      4.476982   401A      4.503570   402A      4.506792  
     403A      4.511789   404A      4.521171   405A      4.537856  
     406A      4.594909   407A      4.601013   408A      4.619502  
     409A      4.621010   410A      4.642341   411A      4.661039  
     412A      4.673682   413A      4.677682   414A      4.686772  
     415A      4.691868   416A      4.706643   417A      4.715582  
     418A      4.723548   419A      4.758639   420A      4.769830  
     421A      4.784216   422A      4.796210   423A      4.852099  
     424A      4.857350   425A      4.873539   426A      4.924345  
     427A      4.931309   428A      4.947925   429A      4.951535  
     430A      4.970519   431A      4.974833   432A      4.993129  
     433A      5.010263   434A      5.026734   435A      5.041225  
     436A      5.068321   437A      5.074011   438A      5.093791  
     439A      5.102194   440A      5.104314   441A      5.110295  
     442A      5.136670   443A      5.191657   444A      5.211188  
     445A      5.216462   446A      5.243710   447A      5.247368  
     448A      5.273654   449A      5.275978   450A      5.307699  
     451A      5.308264   452A      5.344932   453A      5.365999  
     454A      5.387421   455A      5.405254   456A      5.424687  
     457A      5.458060   458A      5.467588   459A      5.478952  
     460A      5.537110   461A      5.552420   462A      5.568654  
     463A      5.575168   464A      5.583724   465A      5.613497  
     466A      5.685101   467A      5.738571   468A      5.745577  
     469A      5.761704   470A      5.790784   471A      5.841587  
     472A      5.849452   473A      5.854751   474A      5.914402  
     475A      5.975806   476A      5.979646   477A      5.990995  
     478A      6.059133   479A      6.064390   480A      6.070670  
     481A      6.081263   482A      6.133592   483A      6.168715  
     484A      6.174892   485A      6.207454   486A      6.255924  
     487A      6.276532   488A      6.363900   489A      6.495347  
     490A      6.528817   491A      6.545381   492A      6.604250  
     493A      6.665952   494A      6.674197   495A      6.678702  
     496A      6.702862   497A      6.712380   498A      6.807723  
     499A      7.012280   500A      7.338286   501A      7.694346  
     502A     17.718018   503A     17.839758   504A     18.335065  
     505A     18.460310   506A     19.640491  

    Final Occupation by Irrep:
              A 
    DOCC [    21 ]

  @DF-RHF Final Energy:  -212.77935285988752

   => Energetics <=

    Nuclear Repulsion Energy =            198.0754070268629619
    One-Electron Energy =                -669.6587113986760187
    Two-Electron Energy =                 258.8039515119255043
    Total Energy =                       -212.7793528598875241

Computation Completed

*** tstop() called on c466-083.stampede2.tacc.utexas.edu at Fri Mar 19 07:40:35 2021
Module time:
	user time   =     262.71 seconds =       4.38 minutes
	system time =      22.10 seconds =       0.37 minutes
	total time  =         18 seconds =       0.30 minutes
Total time:
	user time   =     262.71 seconds =       4.38 minutes
	system time =      22.10 seconds =       0.37 minutes
	total time  =         18 seconds =       0.30 minutes
   => Loading Basis Set <=

    Name: (AUG-CC-PVTZ AUX)
    Role: RIFIT
    Keyword: DF_BASIS_MP2
    atoms 1    entry N          line   206 file /home1/07844/xy3866/miniconda3/envs/p4env/share/psi4/basis/aug-cc-pvtz-ri.gbs 
    atoms 2-5  entry C          line   148 file /home1/07844/xy3866/miniconda3/envs/p4env/share/psi4/basis/aug-cc-pvtz-ri.gbs 
    atoms 6-17 entry H          line    30 file /home1/07844/xy3866/miniconda3/envs/p4env/share/psi4/basis/aug-cc-pvtz-ri.gbs 


*** tstart() called on c466-083.stampede2.tacc.utexas.edu
*** at Fri Mar 19 07:40:36 2021


  //>>>>>>>>>>>>>>>>>>>>>>>>>>>>>>>>>>>//
  //               DFMP2               //
  //<<<<<<<<<<<<<<<<<<<<<<<<<<<<<<<<<<<//

	 --------------------------------------------------------
	                          DF-MP2                         
	      2nd-Order Density-Fitted Moller-Plesset Theory     
	              RMP2 Wavefunction,  32 Threads             
	                                                         
	        Rob Parrish, Justin Turney, Andy Simmonett,      
	           Ed Hohenstein, and C. David Sherrill          
	 --------------------------------------------------------

   => Auxiliary Basis Set <=

  Basis Set: (AUG-CC-PVTZ AUX)
    Blend: AUG-CC-PVTZ-RI
    Number of shells: 308
    Number of basis functions: 1082
    Number of Cartesian functions: 1340
    Spherical Harmonics?: true
    Max angular momentum: 4

	 --------------------------------------------------------
	                 NBF =   506, NAUX =  1082
	 --------------------------------------------------------
	   CLASS    FOCC     OCC    AOCC    AVIR     VIR    FVIR
	   PAIRS       0      21      21     485     485       0
	 --------------------------------------------------------

  DFHelper Memory: AOs need 2.095 GiB; user supplied 22.352 GiB. Using in-core AOs.


         ------------------------------------------------------------
                                     CPHF                           
                                  Rob Parrish                       
         ------------------------------------------------------------

  ==> Geometry <==

    Molecular point group: c1
    Full point group: C1

    Geometry (in Angstrom), charge = 1, multiplicity = 1:

       Center              X                  Y                   Z               Mass       
    ------------   -----------------  -----------------  -----------------  -----------------
         N            0.002720483551     0.273319671815     0.000063047109    14.003074004430
         C            1.248722183551    -0.531279928185     0.028942747109    12.000000000000
         C           -1.260079516449    -0.542127328185    -0.029205952891    12.000000000000
         C            2.486245483551     0.355705671815    -0.012445952891    12.000000000000
         C           -2.480804516449     0.355705671815     0.012572047109    12.000000000000
         H           -0.015298516449     0.895439671815     0.818875047109     1.007825032230
         H            0.020739483551     0.895439671815    -0.818748952891     1.007825032230
         H            1.224072483551    -1.137823328185     0.941849047109     1.007825032230
         H            1.219308483551    -1.209598328185    -0.831815952891     1.007825032230
         H           -1.218631516449    -1.137823328185    -0.941722952891     1.007825032230
         H           -1.213867516449    -1.209598328185     0.831942047109     1.007825032230
         H            3.381823483551    -0.268368328185     0.014422047109     1.007825032230
         H            2.511527483551     0.947162671815    -0.930865952891     1.007825032230
         H            2.514981483551     1.029499671815     0.847185047109     1.007825032230
         H           -3.376382516449    -0.268368328185    -0.014295952891     1.007825032230
         H           -2.506086516449     0.947162671815     0.930992047109     1.007825032230
         H           -2.509540516449     1.029499671815    -0.847058952891     1.007825032230

  Nuclear repulsion =  198.075407026862962
  Reference energy  = -212.779352859887524

  ==> Basis Set <==

  Basis Set: AUG-CC-PVTZ
    Blend: AUG-CC-PVTZ
    Number of shells: 178
    Number of basis functions: 506
    Number of Cartesian functions: 575
    Spherical Harmonics?: true
    Max angular momentum: 3

  ==> CGRSolver (by Rob Parrish) <==

   Number of roots    =         1
   Preconditioning    =    JACOBI
   Convergence cutoff =     1E-06
   Maximum iterations =       100

  ==> CPHFRHamiltonian (by Rob Parrish) <== 

  ==> MemDFJK: Density-Fitted J/K Matrices <==

    J tasked:                   Yes
    K tasked:                   Yes
    wK tasked:                   No
    OpenMP threads:              32
    Memory [MiB]:             22888
    Algorithm:                 Core
    Schwarz Cutoff:           1E-12
    Mask sparsity (%):       3.4542
    Fitting Condition:        1E-10

   => Auxiliary Basis Set <=

  Basis Set: (AUG-CC-PVTZ AUX)
    Blend: AUG-CC-PVTZ-JKFIT
    Number of shells: 318
    Number of basis functions: 1072
    Number of Cartesian functions: 1315
    Spherical Harmonics?: true
    Max angular momentum: 4

  ==> CPHF Iterations <==

  => Iterations <=

             Iter  Converged  Remaining    Residual
  CGR           1          0          1   7.411E-02
  CGR           2          0          1   1.356E-02
  CGR           3          0          1   4.622E-03
  CGR           4          0          1   1.124E-03
  CGR           5          0          1   2.271E-04
  CGR           6          0          1   5.269E-05
  CGR           7          0          1   1.042E-05
  CGR           8          0          1   2.586E-06
  CGR           9          1          0   5.972E-07

    CGRSolver converged.

	-----------------------------------------------------------
	 ==================> DF-MP2 Energies <==================== 
	-----------------------------------------------------------
	 Reference Energy          =    -212.7793528598875241 [Eh]
	 Singles Energy            =      -0.0000000000000000 [Eh]
	 Same-Spin Energy          =      -0.2157138454076133 [Eh]
	 Opposite-Spin Energy      =      -0.8091212143875768 [Eh]
	 Correlation Energy        =      -1.0248350597951901 [Eh]
	 Total Energy              =    -213.8041879196827040 [Eh]
	-----------------------------------------------------------
	 ================> DF-SCS-MP2 Energies <================== 
	-----------------------------------------------------------
	 SCS Same-Spin Scale       =       0.3333333333333333 [-]
	 SCS Opposite-Spin Scale   =       1.2000000000000000 [-]
	 SCS Same-Spin Energy      =      -0.0719046151358711 [Eh]
	 SCS Opposite-Spin Energy  =      -0.9709454572650921 [Eh]
	 SCS Correlation Energy    =      -1.0428500724009633 [Eh]
	 SCS Total Energy          =    -213.8222029322884907 [Eh]
	-----------------------------------------------------------



Properties will be evaluated at   0.000000,   0.000000,   0.000000 [a0]

Properties computed using the MP2 density matrix

  Nuclear Dipole Moment: [e a0]
     X:     0.0306      Y:     0.4798      Z:     0.0007

  Electronic Dipole Moment: [e a0]
     X:    -0.0476      Y:    -0.2615      Z:    -0.0009

  Dipole Moment: [e a0]
     X:    -0.0170      Y:     0.2183      Z:    -0.0002     Total:     0.2189

  Dipole Moment: [D]
     X:    -0.0432      Y:     0.5548      Z:    -0.0004     Total:     0.5565


*** tstop() called on c466-083.stampede2.tacc.utexas.edu at Fri Mar 19 07:42:00 2021
Module time:
	user time   =     698.54 seconds =      11.64 minutes
	system time =      29.43 seconds =       0.49 minutes
	total time  =         84 seconds =       1.40 minutes
Total time:
	user time   =     962.06 seconds =      16.03 minutes
	system time =      51.54 seconds =       0.86 minutes
	total time  =        103 seconds =       1.72 minutes

    Psi4 stopped on: Friday, 19 March 2021 07:42AM
    Psi4 wall time for execution: 0:01:43.86

*** Psi4 exiting successfully. Buy a developer a beer!
