20087504                                                                
Freq      RMP2-FC                                                     6-31G(d)            
Number of atoms                            I               21
Info1-9                                    I   N=           9
          33          31        1002           0           0         100
           6           2           1
Charge                                     I                0
Multiplicity                               I                1
Number of electrons                        I               74
Number of alpha electrons                  I               37
Number of beta electrons                   I               37
Number of basis functions                  I              172
Number of independent functions            I              172
Number of point charges in /Mol/           I                0
Number of translation vectors              I                0
Atomic numbers                             I   N=          21
           8           7           6           6           6           6
           6           6           6           6           1           1
           1           1           1           1           1           1
           1           1           1
Nuclear charges                            R   N=          21
  8.00000000E+00  7.00000000E+00  6.00000000E+00  6.00000000E+00  6.00000000E+00
  6.00000000E+00  6.00000000E+00  6.00000000E+00  6.00000000E+00  6.00000000E+00
  1.00000000E+00  1.00000000E+00  1.00000000E+00  1.00000000E+00  1.00000000E+00
  1.00000000E+00  1.00000000E+00  1.00000000E+00  1.00000000E+00  1.00000000E+00
  1.00000000E+00
Current cartesian coordinates              R   N=          63
 -2.39836790E+00 -3.71051263E+00 -5.64902953E-01 -3.00740328E+00  1.41626746E+00
 -7.83461477E-01 -5.91535965E-01  4.00456054E-01 -3.01558478E-01  1.56883961E+00
  1.94753512E+00 -9.80150554E-02 -2.70530056E-01 -2.24472572E+00 -2.29996160E-01
  3.94922410E+00  8.45083825E-01  2.56509021E-01  1.31341333E+00  4.78311823E+00
 -2.20497983E-01  2.10067735E+00 -3.31126794E+00  1.88905075E-01  4.22772559E+00
 -1.76669491E+00  3.95027629E-01 -4.99412518E+00  8.59219112E-01  1.07290335E+00
  5.60036369E+00  2.06061099E+00  4.13192102E-01 -2.87964393E+00  3.31381062E+00
 -1.03653004E+00  6.52076835E-01  5.42573472E+00 -2.07665302E+00 -1.40232482E-02
  5.49614064E+00  1.20099757E+00  3.14069840E+00  5.68094561E+00  1.25529272E-01
  2.29142699E+00 -5.36096398E+00  2.58568161E-01  6.07805412E+00 -2.60474181E+00
  6.99440726E-01 -4.45714862E+00  1.36420215E+00  3.01623670E+00 -5.45004628E+00
 -1.14457154E+00  1.01102461E+00 -6.67657284E+00  1.93553864E+00  5.48067402E-01
 -1.86855159E+00 -5.47281991E+00 -5.36083938E-01
Force Field                                I                0
Int Atom Types                             I   N=          21
           0           0           0           0           0           0
           0           0           0           0           0           0
           0           0           0           0           0           0
           0           0           0
MM charges                                 R   N=          21
  0.00000000E+00  0.00000000E+00  0.00000000E+00  0.00000000E+00  0.00000000E+00
  0.00000000E+00  0.00000000E+00  0.00000000E+00  0.00000000E+00  0.00000000E+00
  0.00000000E+00  0.00000000E+00  0.00000000E+00  0.00000000E+00  0.00000000E+00
  0.00000000E+00  0.00000000E+00  0.00000000E+00  0.00000000E+00  0.00000000E+00
  0.00000000E+00
Integer atomic weights                     I   N=          21
          16          14          12          12          12          12
          12          12          12          12           1           1
           1           1           1           1           1           1
           1           1           1
Real atomic weights                        R   N=          21
  1.59949146E+01  1.40030740E+01  1.20000000E+01  1.20000000E+01  1.20000000E+01
  1.20000000E+01  1.20000000E+01  1.20000000E+01  1.20000000E+01  1.20000000E+01
  1.00782504E+00  1.00782504E+00  1.00782504E+00  1.00782504E+00  1.00782504E+00
  1.00782504E+00  1.00782504E+00  1.00782504E+00  1.00782504E+00  1.00782504E+00
  1.00782504E+00
Atom fragment info                         I   N=          21
           0           0           0           0           0           0
           0           0           0           0           0           0
           0           0           0           0           0           0
           0           0           0
Atom residue num                           I   N=          21
           0           0           0           0           0           0
           0           0           0           0           0           0
           0           0           0           0           0           0
           0           0           0
Nuclear spins                              I   N=          21
           0           2           0           0           0           0
           0           0           0           0           1           1
           1           1           1           1           1           1
           1           1           1
Nuclear ZEff                               R   N=          21
 -5.60000000E+00 -4.55000000E+00 -3.60000000E+00 -3.60000000E+00 -3.60000000E+00
 -3.60000000E+00 -3.60000000E+00 -3.60000000E+00 -3.60000000E+00 -3.60000000E+00
 -1.00000000E+00 -1.00000000E+00 -1.00000000E+00 -1.00000000E+00 -1.00000000E+00
 -1.00000000E+00 -1.00000000E+00 -1.00000000E+00 -1.00000000E+00 -1.00000000E+00
 -1.00000000E+00
Nuclear QMom                               R   N=          21
  0.00000000E+00  2.04400000E+00  0.00000000E+00  0.00000000E+00  0.00000000E+00
  0.00000000E+00  0.00000000E+00  0.00000000E+00  0.00000000E+00  0.00000000E+00
  0.00000000E+00  0.00000000E+00  0.00000000E+00  0.00000000E+00  0.00000000E+00
  0.00000000E+00  0.00000000E+00  0.00000000E+00  0.00000000E+00  0.00000000E+00
  0.00000000E+00
Nuclear GFac                               R   N=          21
  0.00000000E+00  4.03761000E-01  0.00000000E+00  0.00000000E+00  0.00000000E+00
  0.00000000E+00  0.00000000E+00  0.00000000E+00  0.00000000E+00  0.00000000E+00
  2.79284600E+00  2.79284600E+00  2.79284600E+00  2.79284600E+00  2.79284600E+00
  2.79284600E+00  2.79284600E+00  2.79284600E+00  2.79284600E+00  2.79284600E+00
  2.79284600E+00
MicOpt                                     I   N=          21
          -1          -1          -1          -1          -1          -1
          -1          -1          -1          -1          -1          -1
          -1          -1          -1          -1          -1          -1
          -1          -1          -1
Number of contracted shells                I               62
Number of primitive shells                 I              154
Pure/Cartesian d shells                    I                1
Pure/Cartesian f shells                    I                0
Highest angular momentum                   I                2
Largest degree of contraction              I                6
Shell types                                I   N=          62
           0          -1          -1           2           0          -1
          -1           2           0          -1          -1           2
           0          -1          -1           2           0          -1
          -1           2           0          -1          -1           2
           0          -1          -1           2           0          -1
          -1           2           0          -1          -1           2
           0          -1          -1           2           0           0
           0           0           0           0           0           0
           0           0           0           0           0           0
           0           0           0           0           0           0
           0           0
Number of primitives per shell             I   N=          62
           6           3           1           1           6           3
           1           1           6           3           1           1
           6           3           1           1           6           3
           1           1           6           3           1           1
           6           3           1           1           6           3
           1           1           6           3           1           1
           6           3           1           1           3           1
           3           1           3           1           3           1
           3           1           3           1           3           1
           3           1           3           1           3           1
           3           1
Shell to atom map                          I   N=          62
           1           1           1           1           2           2
           2           2           3           3           3           3
           4           4           4           4           5           5
           5           5           6           6           6           6
           7           7           7           7           8           8
           8           8           9           9           9           9
          10          10          10          10          11          11
          12          12          13          13          14          14
          15          15          16          16          17          17
          18          18          19          19          20          20
          21          21
Primitive exponents                        R   N=         154
  5.48467166E+03  8.25234946E+02  1.88046958E+02  5.29645000E+01  1.68975704E+01
  5.79963534E+00  1.55396162E+01  3.59993359E+00  1.01376175E+00  2.70005823E-01
  8.00000000E-01  4.17351146E+03  6.27457911E+02  1.42902093E+02  4.02343293E+01
  1.28202129E+01  4.39043701E+00  1.16263619E+01  2.71627981E+00  7.72218397E-01
  2.12031498E-01  8.00000000E-01  3.04752488E+03  4.57369518E+02  1.03948685E+02
  2.92101553E+01  9.28666296E+00  3.16392696E+00  7.86827235E+00  1.88128854E+00
  5.44249258E-01  1.68714478E-01  8.00000000E-01  3.04752488E+03  4.57369518E+02
  1.03948685E+02  2.92101553E+01  9.28666296E+00  3.16392696E+00  7.86827235E+00
  1.88128854E+00  5.44249258E-01  1.68714478E-01  8.00000000E-01  3.04752488E+03
  4.57369518E+02  1.03948685E+02  2.92101553E+01  9.28666296E+00  3.16392696E+00
  7.86827235E+00  1.88128854E+00  5.44249258E-01  1.68714478E-01  8.00000000E-01
  3.04752488E+03  4.57369518E+02  1.03948685E+02  2.92101553E+01  9.28666296E+00
  3.16392696E+00  7.86827235E+00  1.88128854E+00  5.44249258E-01  1.68714478E-01
  8.00000000E-01  3.04752488E+03  4.57369518E+02  1.03948685E+02  2.92101553E+01
  9.28666296E+00  3.16392696E+00  7.86827235E+00  1.88128854E+00  5.44249258E-01
  1.68714478E-01  8.00000000E-01  3.04752488E+03  4.57369518E+02  1.03948685E+02
  2.92101553E+01  9.28666296E+00  3.16392696E+00  7.86827235E+00  1.88128854E+00
  5.44249258E-01  1.68714478E-01  8.00000000E-01  3.04752488E+03  4.57369518E+02
  1.03948685E+02  2.92101553E+01  9.28666296E+00  3.16392696E+00  7.86827235E+00
  1.88128854E+00  5.44249258E-01  1.68714478E-01  8.00000000E-01  3.04752488E+03
  4.57369518E+02  1.03948685E+02  2.92101553E+01  9.28666296E+00  3.16392696E+00
  7.86827235E+00  1.88128854E+00  5.44249258E-01  1.68714478E-01  8.00000000E-01
  1.87311370E+01  2.82539436E+00  6.40121692E-01  1.61277759E-01  1.87311370E+01
  2.82539436E+00  6.40121692E-01  1.61277759E-01  1.87311370E+01  2.82539436E+00
  6.40121692E-01  1.61277759E-01  1.87311370E+01  2.82539436E+00  6.40121692E-01
  1.61277759E-01  1.87311370E+01  2.82539436E+00  6.40121692E-01  1.61277759E-01
  1.87311370E+01  2.82539436E+00  6.40121692E-01  1.61277759E-01  1.87311370E+01
  2.82539436E+00  6.40121692E-01  1.61277759E-01  1.87311370E+01  2.82539436E+00
  6.40121692E-01  1.61277759E-01  1.87311370E+01  2.82539436E+00  6.40121692E-01
  1.61277759E-01  1.87311370E+01  2.82539436E+00  6.40121692E-01  1.61277759E-01
  1.87311370E+01  2.82539436E+00  6.40121692E-01  1.61277759E-01
Contraction coefficients                   R   N=         154
  1.83107443E-03  1.39501722E-02  6.84450781E-02  2.32714336E-01  4.70192898E-01
  3.58520853E-01 -1.10777550E-01 -1.48026263E-01  1.13076702E+00  1.00000000E+00
  1.00000000E+00  1.83477216E-03  1.39946270E-02  6.85865518E-02  2.32240873E-01
  4.69069948E-01  3.60455199E-01 -1.14961182E-01 -1.69117479E-01  1.14585195E+00
  1.00000000E+00  1.00000000E+00  1.83473713E-03  1.40373228E-02  6.88426223E-02
  2.32184443E-01  4.67941348E-01  3.62311985E-01 -1.19332420E-01 -1.60854152E-01
  1.14345644E+00  1.00000000E+00  1.00000000E+00  1.83473713E-03  1.40373228E-02
  6.88426223E-02  2.32184443E-01  4.67941348E-01  3.62311985E-01 -1.19332420E-01
 -1.60854152E-01  1.14345644E+00  1.00000000E+00  1.00000000E+00  1.83473713E-03
  1.40373228E-02  6.88426223E-02  2.32184443E-01  4.67941348E-01  3.62311985E-01
 -1.19332420E-01 -1.60854152E-01  1.14345644E+00  1.00000000E+00  1.00000000E+00
  1.83473713E-03  1.40373228E-02  6.88426223E-02  2.32184443E-01  4.67941348E-01
  3.62311985E-01 -1.19332420E-01 -1.60854152E-01  1.14345644E+00  1.00000000E+00
  1.00000000E+00  1.83473713E-03  1.40373228E-02  6.88426223E-02  2.32184443E-01
  4.67941348E-01  3.62311985E-01 -1.19332420E-01 -1.60854152E-01  1.14345644E+00
  1.00000000E+00  1.00000000E+00  1.83473713E-03  1.40373228E-02  6.88426223E-02
  2.32184443E-01  4.67941348E-01  3.62311985E-01 -1.19332420E-01 -1.60854152E-01
  1.14345644E+00  1.00000000E+00  1.00000000E+00  1.83473713E-03  1.40373228E-02
  6.88426223E-02  2.32184443E-01  4.67941348E-01  3.62311985E-01 -1.19332420E-01
 -1.60854152E-01  1.14345644E+00  1.00000000E+00  1.00000000E+00  1.83473713E-03
  1.40373228E-02  6.88426223E-02  2.32184443E-01  4.67941348E-01  3.62311985E-01
 -1.19332420E-01 -1.60854152E-01  1.14345644E+00  1.00000000E+00  1.00000000E+00
  3.34946043E-02  2.34726953E-01  8.13757326E-01  1.00000000E+00  3.34946043E-02
  2.34726953E-01  8.13757326E-01  1.00000000E+00  3.34946043E-02  2.34726953E-01
  8.13757326E-01  1.00000000E+00  3.34946043E-02  2.34726953E-01  8.13757326E-01
  1.00000000E+00  3.34946043E-02  2.34726953E-01  8.13757326E-01  1.00000000E+00
  3.34946043E-02  2.34726953E-01  8.13757326E-01  1.00000000E+00  3.34946043E-02
  2.34726953E-01  8.13757326E-01  1.00000000E+00  3.34946043E-02  2.34726953E-01
  8.13757326E-01  1.00000000E+00  3.34946043E-02  2.34726953E-01  8.13757326E-01
  1.00000000E+00  3.34946043E-02  2.34726953E-01  8.13757326E-01  1.00000000E+00
  3.34946043E-02  2.34726953E-01  8.13757326E-01  1.00000000E+00
P(S=P) Contraction coefficients            R   N=         154
  0.00000000E+00  0.00000000E+00  0.00000000E+00  0.00000000E+00  0.00000000E+00
  0.00000000E+00  7.08742682E-02  3.39752839E-01  7.27158577E-01  1.00000000E+00
  0.00000000E+00  0.00000000E+00  0.00000000E+00  0.00000000E+00  0.00000000E+00
  0.00000000E+00  0.00000000E+00  6.75797439E-02  3.23907296E-01  7.40895140E-01
  1.00000000E+00  0.00000000E+00  0.00000000E+00  0.00000000E+00  0.00000000E+00
  0.00000000E+00  0.00000000E+00  0.00000000E+00  6.89990666E-02  3.16423961E-01
  7.44308291E-01  1.00000000E+00  0.00000000E+00  0.00000000E+00  0.00000000E+00
  0.00000000E+00  0.00000000E+00  0.00000000E+00  0.00000000E+00  6.89990666E-02
  3.16423961E-01  7.44308291E-01  1.00000000E+00  0.00000000E+00  0.00000000E+00
  0.00000000E+00  0.00000000E+00  0.00000000E+00  0.00000000E+00  0.00000000E+00
  6.89990666E-02  3.16423961E-01  7.44308291E-01  1.00000000E+00  0.00000000E+00
  0.00000000E+00  0.00000000E+00  0.00000000E+00  0.00000000E+00  0.00000000E+00
  0.00000000E+00  6.89990666E-02  3.16423961E-01  7.44308291E-01  1.00000000E+00
  0.00000000E+00  0.00000000E+00  0.00000000E+00  0.00000000E+00  0.00000000E+00
  0.00000000E+00  0.00000000E+00  6.89990666E-02  3.16423961E-01  7.44308291E-01
  1.00000000E+00  0.00000000E+00  0.00000000E+00  0.00000000E+00  0.00000000E+00
  0.00000000E+00  0.00000000E+00  0.00000000E+00  6.89990666E-02  3.16423961E-01
  7.44308291E-01  1.00000000E+00  0.00000000E+00  0.00000000E+00  0.00000000E+00
  0.00000000E+00  0.00000000E+00  0.00000000E+00  0.00000000E+00  6.89990666E-02
  3.16423961E-01  7.44308291E-01  1.00000000E+00  0.00000000E+00  0.00000000E+00
  0.00000000E+00  0.00000000E+00  0.00000000E+00  0.00000000E+00  0.00000000E+00
  6.89990666E-02  3.16423961E-01  7.44308291E-01  1.00000000E+00  0.00000000E+00
  0.00000000E+00  0.00000000E+00  0.00000000E+00  0.00000000E+00  0.00000000E+00
  0.00000000E+00  0.00000000E+00  0.00000000E+00  0.00000000E+00  0.00000000E+00
  0.00000000E+00  0.00000000E+00  0.00000000E+00  0.00000000E+00  0.00000000E+00
  0.00000000E+00  0.00000000E+00  0.00000000E+00  0.00000000E+00  0.00000000E+00
  0.00000000E+00  0.00000000E+00  0.00000000E+00  0.00000000E+00  0.00000000E+00
  0.00000000E+00  0.00000000E+00  0.00000000E+00  0.00000000E+00  0.00000000E+00
  0.00000000E+00  0.00000000E+00  0.00000000E+00  0.00000000E+00  0.00000000E+00
  0.00000000E+00  0.00000000E+00  0.00000000E+00  0.00000000E+00  0.00000000E+00
  0.00000000E+00  0.00000000E+00  0.00000000E+00  0.00000000E+00
Coordinates of each shell                  R   N=         186
 -2.39836790E+00 -3.71051263E+00 -5.64902953E-01 -2.39836790E+00 -3.71051263E+00
 -5.64902953E-01 -2.39836790E+00 -3.71051263E+00 -5.64902953E-01 -2.39836790E+00
 -3.71051263E+00 -5.64902953E-01 -3.00740328E+00  1.41626746E+00 -7.83461477E-01
 -3.00740328E+00  1.41626746E+00 -7.83461477E-01 -3.00740328E+00  1.41626746E+00
 -7.83461477E-01 -3.00740328E+00  1.41626746E+00 -7.83461477E-01 -5.91535965E-01
  4.00456054E-01 -3.01558478E-01 -5.91535965E-01  4.00456054E-01 -3.01558478E-01
 -5.91535965E-01  4.00456054E-01 -3.01558478E-01 -5.91535965E-01  4.00456054E-01
 -3.01558478E-01  1.56883961E+00  1.94753512E+00 -9.80150554E-02  1.56883961E+00
  1.94753512E+00 -9.80150554E-02  1.56883961E+00  1.94753512E+00 -9.80150554E-02
  1.56883961E+00  1.94753512E+00 -9.80150554E-02 -2.70530056E-01 -2.24472572E+00
 -2.29996160E-01 -2.70530056E-01 -2.24472572E+00 -2.29996160E-01 -2.70530056E-01
 -2.24472572E+00 -2.29996160E-01 -2.70530056E-01 -2.24472572E+00 -2.29996160E-01
  3.94922410E+00  8.45083825E-01  2.56509021E-01  3.94922410E+00  8.45083825E-01
  2.56509021E-01  3.94922410E+00  8.45083825E-01  2.56509021E-01  3.94922410E+00
  8.45083825E-01  2.56509021E-01  1.31341333E+00  4.78311823E+00 -2.20497983E-01
  1.31341333E+00  4.78311823E+00 -2.20497983E-01  1.31341333E+00  4.78311823E+00
 -2.20497983E-01  1.31341333E+00  4.78311823E+00 -2.20497983E-01  2.10067735E+00
 -3.31126794E+00  1.88905075E-01  2.10067735E+00 -3.31126794E+00  1.88905075E-01
  2.10067735E+00 -3.31126794E+00  1.88905075E-01  2.10067735E+00 -3.31126794E+00
  1.88905075E-01  4.22772559E+00 -1.76669491E+00  3.95027629E-01  4.22772559E+00
 -1.76669491E+00  3.95027629E-01  4.22772559E+00 -1.76669491E+00  3.95027629E-01
  4.22772559E+00 -1.76669491E+00  3.95027629E-01 -4.99412518E+00  8.59219112E-01
  1.07290335E+00 -4.99412518E+00  8.59219112E-01  1.07290335E+00 -4.99412518E+00
  8.59219112E-01  1.07290335E+00 -4.99412518E+00  8.59219112E-01  1.07290335E+00
  5.60036369E+00  2.06061099E+00  4.13192102E-01  5.60036369E+00  2.06061099E+00
  4.13192102E-01 -2.87964393E+00  3.31381062E+00 -1.03653004E+00 -2.87964393E+00
  3.31381062E+00 -1.03653004E+00  6.52076835E-01  5.42573472E+00 -2.07665302E+00
  6.52076835E-01  5.42573472E+00 -2.07665302E+00 -1.40232482E-02  5.49614064E+00
  1.20099757E+00 -1.40232482E-02  5.49614064E+00  1.20099757E+00  3.14069840E+00
  5.68094561E+00  1.25529272E-01  3.14069840E+00  5.68094561E+00  1.25529272E-01
  2.29142699E+00 -5.36096398E+00  2.58568161E-01  2.29142699E+00 -5.36096398E+00
  2.58568161E-01  6.07805412E+00 -2.60474181E+00  6.99440726E-01  6.07805412E+00
 -2.60474181E+00  6.99440726E-01 -4.45714862E+00  1.36420215E+00  3.01623670E+00
 -4.45714862E+00  1.36420215E+00  3.01623670E+00 -5.45004628E+00 -1.14457154E+00
  1.01102461E+00 -5.45004628E+00 -1.14457154E+00  1.01102461E+00 -6.67657284E+00
  1.93553864E+00  5.48067402E-01 -6.67657284E+00  1.93553864E+00  5.48067402E-01
 -1.86855159E+00 -5.47281991E+00 -5.36083938E-01 -1.86855159E+00 -5.47281991E+00
 -5.36083938E-01
Constraint Structure                       R   N=          63
 -2.39836790E+00 -3.71051263E+00 -5.64902953E-01 -3.00740328E+00  1.41626746E+00
 -7.83461477E-01 -5.91535965E-01  4.00456054E-01 -3.01558478E-01  1.56883961E+00
  1.94753512E+00 -9.80150554E-02 -2.70530056E-01 -2.24472572E+00 -2.29996160E-01
  3.94922410E+00  8.45083825E-01  2.56509021E-01  1.31341333E+00  4.78311823E+00
 -2.20497983E-01  2.10067735E+00 -3.31126794E+00  1.88905075E-01  4.22772559E+00
 -1.76669491E+00  3.95027629E-01 -4.99412518E+00  8.59219112E-01  1.07290335E+00
  5.60036369E+00  2.06061099E+00  4.13192102E-01 -2.87964393E+00  3.31381062E+00
 -1.03653004E+00  6.52076835E-01  5.42573472E+00 -2.07665302E+00 -1.40232482E-02
  5.49614064E+00  1.20099757E+00  3.14069840E+00  5.68094561E+00  1.25529272E-01
  2.29142699E+00 -5.36096398E+00  2.58568161E-01  6.07805412E+00 -2.60474181E+00
  6.99440726E-01 -4.45714862E+00  1.36420215E+00  3.01623670E+00 -5.45004628E+00
 -1.14457154E+00  1.01102461E+00 -6.67657284E+00  1.93553864E+00  5.48067402E-01
 -1.86855159E+00 -5.47281991E+00 -5.36083938E-01
Num ILSW                                   I              100
ILSW                                       I   N=         100
           0           1           0           0           2           0
           0           0           0           0           0          -1
           0           0           0           0           0           0
           0           0           0           0           1           0
           1           0           0           0           0           0
           0           0      100000           0          -1           0
           0           0           0           0           0           0
           0           0           0           1           1           0
           0           0           1           0           0           0
           0           0           4          40           0           0
           0           0           0           0           0           0
           0           0           0           0           0           0
           0           0           0           0           0           0
           0           0           0           0           0           0
           0           0           0           0           0           0
           0           0           0           0           0           0
           0           0           0           0
Num RLSW                                   I               40
RLSW                                       R   N=          40
  1.00000000E+00  1.00000000E+00  1.00000000E+00  1.00000000E+00  1.00000000E+00
  0.00000000E+00  0.00000000E+00  1.00000000E+00  0.00000000E+00  0.00000000E+00
  0.00000000E+00  0.00000000E+00  1.00000000E+00  0.00000000E+00  0.00000000E+00
  0.00000000E+00  0.00000000E+00  1.00000000E+00  0.00000000E+00  0.00000000E+00
  0.00000000E+00  0.00000000E+00  1.00000000E+00  0.00000000E+00  0.00000000E+00
  0.00000000E+00  0.00000000E+00  1.00000000E+00  0.00000000E+00  0.00000000E+00
  0.00000000E+00  0.00000000E+00  0.00000000E+00  0.00000000E+00  0.00000000E+00
  0.00000000E+00  0.00000000E+00  0.00000000E+00  1.00000000E+00  1.00000000E+00
MxBond                                     I                4
NBond                                      I   N=          21
           2           3           3           3           3           3
           4           3           3           4           1           1
           1           1           1           1           1           1
           1           1           1
IBond                                      I   N=          84
           5          21           0           0           3          10
          12           0           2           4           5           0
           3           6           7           0           1           3
           8           0           4           9          11           0
           4          13          14          15           5           9
          16           0           6           8          17           0
           2          18          19          20           6           0
           0           0           2           0           0           0
           7           0           0           0           7           0
           0           0           7           0           0           0
           8           0           0           0           9           0
           0           0          10           0           0           0
          10           0           0           0          10           0
           0           0           1           0           0           0
RBond                                      R   N=          84
  1.50000000E+00  1.00000000E+00  0.00000000E+00  0.00000000E+00  1.00000000E+00
  1.00000000E+00  1.00000000E+00  0.00000000E+00  1.00000000E+00  1.50000000E+00
  1.50000000E+00  0.00000000E+00  1.50000000E+00  1.50000000E+00  1.00000000E+00
  0.00000000E+00  1.50000000E+00  1.50000000E+00  1.50000000E+00  0.00000000E+00
  1.50000000E+00  1.50000000E+00  1.00000000E+00  0.00000000E+00  1.00000000E+00
  1.00000000E+00  1.00000000E+00  1.00000000E+00  1.50000000E+00  1.50000000E+00
  1.00000000E+00  0.00000000E+00  1.50000000E+00  1.50000000E+00  1.00000000E+00
  0.00000000E+00  1.00000000E+00  1.00000000E+00  1.00000000E+00  1.00000000E+00
  1.00000000E+00  0.00000000E+00  0.00000000E+00  0.00000000E+00  1.00000000E+00
  0.00000000E+00  0.00000000E+00  0.00000000E+00  1.00000000E+00  0.00000000E+00
  0.00000000E+00  0.00000000E+00  1.00000000E+00  0.00000000E+00  0.00000000E+00
  0.00000000E+00  1.00000000E+00  0.00000000E+00  0.00000000E+00  0.00000000E+00
  1.00000000E+00  0.00000000E+00  0.00000000E+00  0.00000000E+00  1.00000000E+00
  0.00000000E+00  0.00000000E+00  0.00000000E+00  1.00000000E+00  0.00000000E+00
  0.00000000E+00  0.00000000E+00  1.00000000E+00  0.00000000E+00  0.00000000E+00
  0.00000000E+00  1.00000000E+00  0.00000000E+00  0.00000000E+00  0.00000000E+00
  1.00000000E+00  0.00000000E+00  0.00000000E+00  0.00000000E+00
Virial Ratio                               R      2.002188374525195E+00
SCF Energy                                 R     -4.386371062686052E+02
MP2 Energy                                 R     -4.400074387567170E+02
Total Energy                               R     -4.400074387567170E+02
Post-SCF wavefunction norm                 R      1.713013133088776E+00
RMS Force                                  R      1.286182893164297E-07
RMS Density                                R      2.197778674962893E-09
External E-field                           R   N=          35
  0.00000000E+00  0.00000000E+00  0.00000000E+00  0.00000000E+00  0.00000000E+00
  0.00000000E+00  0.00000000E+00  0.00000000E+00  0.00000000E+00  0.00000000E+00
  0.00000000E+00  0.00000000E+00  0.00000000E+00  0.00000000E+00  0.00000000E+00
  0.00000000E+00  0.00000000E+00  0.00000000E+00  0.00000000E+00  0.00000000E+00
  0.00000000E+00  0.00000000E+00  0.00000000E+00  0.00000000E+00  0.00000000E+00
  0.00000000E+00  0.00000000E+00  0.00000000E+00  0.00000000E+00  0.00000000E+00
  0.00000000E+00  0.00000000E+00  0.00000000E+00  0.00000000E+00  0.00000000E+00
IOpCl                                      I                0
IROHF                                      I                0
Alpha Orbital Energies                     R   N=         172
 -2.05887479E+01 -1.55532633E+01 -1.12925456E+01 -1.12605767E+01 -1.12381635E+01
 -1.12373937E+01 -1.12306259E+01 -1.12294615E+01 -1.12283575E+01 -1.12231990E+01
 -1.39075335E+00 -1.21918638E+00 -1.12704792E+00 -1.03762417E+00 -9.90327687E-01
 -9.35025152E-01 -8.97287448E-01 -8.18596060E-01 -7.97101549E-01 -7.02119748E-01
 -6.88654044E-01 -6.66533107E-01 -6.13457481E-01 -6.03367510E-01 -5.92978445E-01
 -5.83479840E-01 -5.71556155E-01 -5.66539721E-01 -5.55333612E-01 -5.33129066E-01
 -5.25236320E-01 -5.01092857E-01 -4.80426403E-01 -4.64543951E-01 -4.06875131E-01
 -3.13007187E-01 -2.83625029E-01  1.47723315E-01  1.65510456E-01  2.16134797E-01
  2.33174478E-01  2.49535246E-01  2.85966427E-01  2.93242009E-01  2.99284596E-01
  3.28588789E-01  3.29860096E-01  3.35558412E-01  3.58730743E-01  3.63801698E-01
  3.80850035E-01  4.04489959E-01  4.15374910E-01  4.50423215E-01  4.69766581E-01
  5.33798033E-01  5.49535639E-01  5.73324039E-01  5.89205742E-01  7.00450307E-01
  7.03716977E-01  7.40596970E-01  7.49045360E-01  7.52917771E-01  7.74191929E-01
  7.91842614E-01  7.97484101E-01  8.19740683E-01  8.24645318E-01  8.39554871E-01
  8.51765728E-01  8.68165816E-01  8.83947103E-01  8.84713312E-01  9.34595888E-01
  9.41316965E-01  9.49098036E-01  1.00097343E+00  1.01458136E+00  1.02089047E+00
  1.04052710E+00  1.08210629E+00  1.09781543E+00  1.10690506E+00  1.12938917E+00
  1.14117277E+00  1.15242701E+00  1.15526039E+00  1.16700777E+00  1.17370248E+00
  1.19446163E+00  1.21316189E+00  1.22568651E+00  1.24305049E+00  1.26082152E+00
  1.28756699E+00  1.30074399E+00  1.31375806E+00  1.32703310E+00  1.35299954E+00
  1.39396686E+00  1.41945521E+00  1.43559055E+00  1.47972237E+00  1.52862023E+00
  1.57304804E+00  1.59848296E+00  1.62713258E+00  1.64182314E+00  1.65144931E+00
  1.67202251E+00  1.69746618E+00  1.71962192E+00  1.75428265E+00  1.78163587E+00
  1.86825762E+00  1.99242251E+00  2.02176608E+00  2.05234555E+00  2.06057078E+00
  2.06187130E+00  2.10788543E+00  2.17411099E+00  2.18369787E+00  2.19757347E+00
  2.20374690E+00  2.23751976E+00  2.24323507E+00  2.27192847E+00  2.28559895E+00
  2.33164876E+00  2.38923071E+00  2.39869532E+00  2.42253773E+00  2.46274343E+00
  2.54023936E+00  2.54506559E+00  2.56082109E+00  2.58608842E+00  2.60602253E+00