
    -----------------------------------------------------------------------
          Psi4: An Open-Source Ab Initio Electronic Structure Package
                               Psi4 1.3.2 release

                         Git: Rev {HEAD} ecbda83 


    R. M. Parrish, L. A. Burns, D. G. A. Smith, A. C. Simmonett,
    A. E. DePrince III, E. G. Hohenstein, U. Bozkaya, A. Yu. Sokolov,
    R. Di Remigio, R. M. Richard, J. F. Gonthier, A. M. James,
    H. R. McAlexander, A. Kumar, M. Saitow, X. Wang, B. P. Pritchard,
    P. Verma, H. F. Schaefer III, K. Patkowski, R. A. King, E. F. Valeev,
    F. A. Evangelista, J. M. Turney, T. D. Crawford, and C. D. Sherrill,
    J. Chem. Theory Comput. 13(7) pp 3185--3197 (2017).
    (doi: 10.1021/acs.jctc.7b00174)


                         Additional Contributions by
    P. Kraus, H. Kruse, M. H. Lechner, M. C. Schieber, R. A. Shaw,
    A. Alenaizan, R. Galvelis, Z. L. Glick, S. Lehtola, and J. P. Misiewicz

    -----------------------------------------------------------------------


    Psi4 started on: Monday, 09 November 2020 08:37PM

    Process ID: 11277
    Host:       node37.bme.utexas.edu
    PSIDATADIR: /home/xy3866/psi4conda/share/psi4
    Memory:     500.0 MiB
    Threads:    8
    
  ==> Input File <==

--------------------------------------------------------------------------
#psi4
#
memory 32 gb

molecule  {
0 1
  O       -0.1027990     2.1661630    -0.1573240
  O       -2.2585870    -1.3354710    -0.3679860
  O       -2.3909180     0.7817600     0.4224630
  C       -0.2229310    -0.2124960     0.0158460
  C        0.5432600     0.9664360    -0.0570110
  C        0.4335280    -1.4494910     0.0925130
  C        1.9402870     0.8816050    -0.0559020
  C        1.8233140    -1.5265410     0.1016630
  C        2.5766507    -0.3446995     0.1798669
  C       -1.7066960    -0.1573290     0.0554370
  H       -0.1661180    -2.3524960     0.1439440
  H        2.5301710     1.7954230    -0.1182500
  H        2.3148760    -2.4929130     0.1687580
  H        3.6635200    -0.3964420     0.0343940
  H        0.5733460     2.8632860    -0.2381370
  H       -3.2241600    -1.2056690    -0.2641310
units angstrom
no_reorient  #important for SAPT in psi4, default
symmetry c1  #important for SAPT in psi4, default
}

set PROPERTIES_ORIGIN ["COM"]
properties('MP2/aug-cc-pvtz', properties = ['dipole'])
--------------------------------------------------------------------------

  Memory set to  29.802 GiB by Python driver.
    SCF Algorithm Type (re)set to DF.

*** tstart() called on node37.bme.utexas.edu
*** at Mon Nov  9 20:37:54 2020

   => Loading Basis Set <=

    Name: AUG-CC-PVTZ
    Role: ORBITAL
    Keyword: BASIS
    atoms 1-3   entry O          line   327 file /home/xy3866/psi4conda/share/psi4/basis/aug-cc-pvtz.gbs 
    atoms 4-10  entry C          line   235 file /home/xy3866/psi4conda/share/psi4/basis/aug-cc-pvtz.gbs 
    atoms 11-16 entry H          line    36 file /home/xy3866/psi4conda/share/psi4/basis/aug-cc-pvtz.gbs 


         ---------------------------------------------------------
                                   SCF
               by Justin Turney, Rob Parrish, Andy Simmonett
                          and Daniel G. A. Smith
                              RHF Reference
                        8 Threads,  30517 MiB Core
         ---------------------------------------------------------

  ==> Geometry <==

    Molecular point group: c1
    Full point group: C1

    Geometry (in Angstrom), charge = 0, multiplicity = 1:

       Center              X                  Y                   Z               Mass       
    ------------   -----------------  -----------------  -----------------  -----------------
         O           -0.062028855595     2.152557156956    -0.172308705465    15.994914619570
         O           -2.217816855595    -1.349076843044    -0.382970705465    15.994914619570
         O           -2.350147855595     0.768154156956     0.407478294535    15.994914619570
         C           -0.182160855595    -0.226101843044     0.000861294535    12.000000000000
         C            0.584030144405     0.952830156956    -0.071995705465    12.000000000000
         C            0.474298144405    -1.463096843044     0.077528294535    12.000000000000
         C            1.981057144405     0.867999156956    -0.070886705465    12.000000000000
         C            1.864084144405    -1.540146843044     0.086678294535    12.000000000000
         C            2.617420844405    -0.358305343044     0.164882194535    12.000000000000
         C           -1.665925855595    -0.170934843044     0.040452294535    12.000000000000
         H           -0.125347855595    -2.366101843044     0.128959294535     1.007825032230
         H            2.570941144405     1.781817156956    -0.133234705465     1.007825032230
         H            2.355646144405    -2.506518843044     0.153773294535     1.007825032230
         H            3.704290144405    -0.410047843044     0.019409294535     1.007825032230
         H            0.614116144405     2.849680156956    -0.253121705465     1.007825032230
         H           -3.183389855595    -1.219274843044    -0.279115705465     1.007825032230

  Running in c1 symmetry.

  Rotational constants: A =      0.07645  B =      0.03998  C =      0.02678 [cm^-1]
  Rotational constants: A =   2291.83100  B =   1198.67070  C =    802.71504 [MHz]
  Nuclear repulsion =  498.715600688349639

  Charge       = 0
  Multiplicity = 1
  Electrons    = 72
  Nalpha       = 36
  Nbeta        = 36

  ==> Algorithm <==

  SCF Algorithm Type is DF.
  DIIS enabled.
  MOM disabled.
  Fractional occupation disabled.
  Guess Type is SAD.
  Energy threshold   = 1.00e-10
  Density threshold  = 1.00e-10
  Integral threshold = 0.00e+00

  ==> Primary Basis <==

  Basis Set: AUG-CC-PVTZ
    Blend: AUG-CC-PVTZ
    Number of shells: 194
    Number of basis function: 598
    Number of Cartesian functions: 700
    Spherical Harmonics?: true
    Max angular momentum: 3

   => Loading Basis Set <=

    Name: (AUG-CC-PVTZ AUX)
    Role: JKFIT
    Keyword: DF_BASIS_SCF
    atoms 1-3   entry O          line   286 file /home/xy3866/psi4conda/share/psi4/basis/aug-cc-pvtz-jkfit.gbs 
    atoms 4-10  entry C          line   162 file /home/xy3866/psi4conda/share/psi4/basis/aug-cc-pvtz-jkfit.gbs 
    atoms 11-16 entry H          line    70 file /home/xy3866/psi4conda/share/psi4/basis/aug-cc-pvtz-jkfit.gbs 

  ==> Pre-Iterations <==

   -------------------------------------------------------
    Irrep   Nso     Nmo     Nalpha   Nbeta   Ndocc  Nsocc
   -------------------------------------------------------
     A        598     598       0       0       0       0
   -------------------------------------------------------
    Total     598     598      36      36      36       0
   -------------------------------------------------------

  ==> Integral Setup <==

  DFHelper Memory: AOs need 3.432 GiB; user supplied 22.352 GiB. Using in-core AOs.

  ==> MemDFJK: Density-Fitted J/K Matrices <==

    J tasked:                   Yes
    K tasked:                   Yes
    wK tasked:                   No
    OpenMP threads:               8
    Memory [MiB]:             22888
    Algorithm:                 Disk
    Schwarz Cutoff:           1E-12
    Mask sparsity (%):       5.1605
    Fitting Condition:        1E-10

   => Auxiliary Basis Set <=

  Basis Set: (AUG-CC-PVTZ AUX)
    Blend: AUG-CC-PVTZ-JKFIT
    Number of shells: 384
    Number of basis function: 1316
    Number of Cartesian functions: 1640
    Spherical Harmonics?: true
    Max angular momentum: 4

  Minimum eigenvalue in the overlap matrix is 1.8131724245E-06.
  Using Symmetric Orthogonalization.

  SCF Guess: Superposition of Atomic Densities via on-the-fly atomic UHF.

  ==> Iterations <==

                           Total Energy        Delta E     RMS |[F,P]|

   @DF-RHF iter SAD:  -492.36193925971725   -4.92362e+02   0.00000e+00 
   @DF-RHF iter   1:  -493.05490594671477   -6.92967e-01   1.29619e-03 DIIS
   @DF-RHF iter   2:  -493.27268763534067   -2.17782e-01   7.40817e-04 DIIS
   @DF-RHF iter   3:  -493.34185159842434   -6.91640e-02   1.31487e-04 DIIS
   @DF-RHF iter   4:  -493.34533963692263   -3.48804e-03   6.57210e-05 DIIS
   @DF-RHF iter   5:  -493.34612031491804   -7.80678e-04   1.30239e-05 DIIS
   @DF-RHF iter   6:  -493.34618671918236   -6.64043e-05   6.38606e-06 DIIS
   @DF-RHF iter   7:  -493.34620285299525   -1.61338e-05   2.52658e-06 DIIS
   @DF-RHF iter   8:  -493.34620619822095   -3.34523e-06   9.66507e-07 DIIS
   @DF-RHF iter   9:  -493.34620664779754   -4.49577e-07   3.41467e-07 DIIS
   @DF-RHF iter  10:  -493.34620671561458   -6.78170e-08   1.52029e-07 DIIS
   @DF-RHF iter  11:  -493.34620672736082   -1.17462e-08   5.44597e-08 DIIS
   @DF-RHF iter  12:  -493.34620672936364   -2.00282e-09   2.27764e-08 DIIS
   @DF-RHF iter  13:  -493.34620672978781   -4.24166e-10   1.07799e-08 DIIS
   @DF-RHF iter  14:  -493.34620672989206   -1.04251e-10   4.91285e-09 DIIS
   @DF-RHF iter  15:  -493.34620672991497   -2.29079e-11   2.04279e-09 DIIS
   @DF-RHF iter  16:  -493.34620672991650   -1.53477e-12   8.09933e-10 DIIS
   @DF-RHF iter  17:  -493.34620672991599    5.11591e-13   3.19540e-10 DIIS
   @DF-RHF iter  18:  -493.34620672991804   -2.04636e-12   1.04906e-10 DIIS
   @DF-RHF iter  19:  -493.34620672991684    1.19371e-12   4.93111e-11 DIIS
  Energy and wave function converged.


  ==> Post-Iterations <==

    Orbital Energies [Eh]
    ---------------------

    Doubly Occupied:                                                      

       1A    -20.610137     2A    -20.602473     3A    -20.543279  
       4A    -11.389766     5A    -11.330666     6A    -11.267799  
       7A    -11.262732     8A    -11.257553     9A    -11.251697  
      10A    -11.244453    11A     -1.453969    12A     -1.415099  
      13A     -1.348868    14A     -1.166628    15A     -1.054035  
      16A     -1.022656    17A     -0.897415    18A     -0.861063  
      19A     -0.801062    20A     -0.744916    21A     -0.709202  
      22A     -0.697691    23A     -0.673731    24A     -0.643925  
      25A     -0.625272    26A     -0.623204    27A     -0.595585  
      28A     -0.588565    29A     -0.579923    30A     -0.535557  
      31A     -0.522688    32A     -0.497659    33A     -0.476375  
      34A     -0.446956    35A     -0.361567    36A     -0.331399  

    Virtual:                                                              

      37A      0.023275    38A      0.029920    39A      0.034328  
      40A      0.044174    41A      0.053999    42A      0.064042  
      43A      0.066171    44A      0.070836    45A      0.090085  
      46A      0.090735    47A      0.094448    48A      0.096976  
      49A      0.107604    50A      0.112577    51A      0.116051  
      52A      0.121526    53A      0.122313    54A      0.123473  
      55A      0.129239    56A      0.133749    57A      0.135421  
      58A      0.147442    59A      0.150800    60A      0.153928  
      61A      0.158408    62A      0.163248    63A      0.169693  
      64A      0.176378    65A      0.178582    66A      0.187250  
      67A      0.199134    68A      0.210398    69A      0.212390  
      70A      0.225058    71A      0.227926    72A      0.232567  
      73A      0.236244    74A      0.239485    75A      0.246675  
      76A      0.250779    77A      0.254068    78A      0.264246  
      79A      0.269517    80A      0.273570    81A      0.274808  
      82A      0.285414    83A      0.288620    84A      0.296866  
      85A      0.301592    86A      0.313580    87A      0.319628  
      88A      0.323454    89A      0.328209    90A      0.334539  
      91A      0.339425    92A      0.343035    93A      0.344162  
      94A      0.353824    95A      0.359012    96A      0.367774  
      97A      0.381420    98A      0.385038    99A      0.386619  
     100A      0.396551   101A      0.402519   102A      0.406693  
     103A      0.413207   104A      0.419492   105A      0.425083  
     106A      0.431161   107A      0.432234   108A      0.435193  
     109A      0.440521   110A      0.449817   111A      0.452730  
     112A      0.454699   113A      0.455296   114A      0.466447  
     115A      0.473390   116A      0.478370   117A      0.484018  
     118A      0.489005   119A      0.492279   120A      0.494061  
     121A      0.500615   122A      0.508423   123A      0.511362  
     124A      0.519544   125A      0.524853   126A      0.526097  
     127A      0.533240   128A      0.537294   129A      0.542307  
     130A      0.552989   131A      0.569201   132A      0.577364  
     133A      0.589068   134A      0.592396   135A      0.597188  
     136A      0.608799   137A      0.613828   138A      0.624512  
     139A      0.630840   140A      0.643362   141A      0.647394  
     142A      0.654424   143A      0.658945   144A      0.677586  
     145A      0.681190   146A      0.690103   147A      0.700683  
     148A      0.710456   149A      0.719186   150A      0.724980  
     151A      0.734341   152A      0.735782   153A      0.740970  
     154A      0.754755   155A      0.763325   156A      0.770145  
     157A      0.781378   158A      0.788308   159A      0.792514  
     160A      0.802539   161A      0.805829   162A      0.813000  
     163A      0.827365   164A      0.839208   165A      0.846508  
     166A      0.849934   167A      0.857426   168A      0.859725  
     169A      0.871891   170A      0.874059   171A      0.880496  
     172A      0.884618   173A      0.889266   174A      0.898820  
     175A      0.901968   176A      0.902709   177A      0.906594  
     178A      0.915738   179A      0.917991   180A      0.930129  
     181A      0.938198   182A      0.946899   183A      0.950532  
     184A      0.960518   185A      0.963958   186A      0.969546  
     187A      0.982470   188A      0.988817   189A      0.991833  
     190A      0.997518   191A      1.001472   192A      1.016695  
     193A      1.020192   194A      1.030515   195A      1.033214  
     196A      1.038900   197A      1.044574   198A      1.048124  
     199A      1.050388   200A      1.064064   201A      1.070232  
     202A      1.074009   203A      1.078338   204A      1.079111  
     205A      1.088883   206A      1.092546   207A      1.099732  
     208A      1.103402   209A      1.115130   210A      1.123267  
     211A      1.134854   212A      1.138988   213A      1.146339  
     214A      1.155267   215A      1.159053   216A      1.169687  
     217A      1.173569   218A      1.183546   219A      1.188291  
     220A      1.197611   221A      1.200558   222A      1.204619  
     223A      1.210361   224A      1.219727   225A      1.224475  
     226A      1.228820   227A      1.241627   228A      1.247700  
     229A      1.252004   230A      1.274948   231A      1.285521  
     232A      1.294747   233A      1.301196   234A      1.303215  
     235A      1.312626   236A      1.320200   237A      1.325406  
     238A      1.333809   239A      1.342178   240A      1.367152  
     241A      1.376037   242A      1.378420   243A      1.385108  
     244A      1.404392   245A      1.414438   246A      1.421430  
     247A      1.430701   248A      1.446836   249A      1.471065  
     250A      1.481706   251A      1.487093   252A      1.492142  
     253A      1.513459   254A      1.521510   255A      1.523698  
     256A      1.539032   257A      1.546488   258A      1.557669  
     259A      1.565128   260A      1.575082   261A      1.586786  
     262A      1.612966   263A      1.629458   264A      1.650716  
     265A      1.657737   266A      1.668737   267A      1.679099  
     268A      1.682978   269A      1.695945   270A      1.704226  
     271A      1.712121   272A      1.727566   273A      1.738611  
     274A      1.754114   275A      1.754688   276A      1.764098  
     277A      1.771804   278A      1.781081   279A      1.791277  
     280A      1.799935   281A      1.812290   282A      1.820953  
     283A      1.827616   284A      1.837415   285A      1.841530  
     286A      1.854508   287A      1.859604   288A      1.866819  
     289A      1.882033   290A      1.887300   291A      1.913543  
     292A      1.920761   293A      1.931975   294A      1.940483  
     295A      1.946459   296A      1.960324   297A      1.992307  
     298A      1.996697   299A      2.004964   300A      2.014918  
     301A      2.023128   302A      2.025282   303A      2.044542  
     304A      2.053534   305A      2.056931   306A      2.072277  
     307A      2.081446   308A      2.084167   309A      2.093285  
     310A      2.109993   311A      2.126332   312A      2.137247  
     313A      2.139864   314A      2.160879   315A      2.171521  
     316A      2.199508   317A      2.215311   318A      2.230404  
     319A      2.238352   320A      2.270859   321A      2.274919  
     322A      2.291380   323A      2.301923   324A      2.328837  
     325A      2.339533   326A      2.343702   327A      2.357496  
     328A      2.382161   329A      2.416196   330A      2.419663  
     331A      2.423797   332A      2.426394   333A      2.451535  
     334A      2.475196   335A      2.482645   336A      2.492960  
     337A      2.507376   338A      2.530411   339A      2.541084  
     340A      2.562542   341A      2.567196   342A      2.572056  
     343A      2.580260   344A      2.598649   345A      2.613707  
     346A      2.627656   347A      2.635973   348A      2.645400  
     349A      2.673966   350A      2.682092   351A      2.686989  
     352A      2.713649   353A      2.721385   354A      2.724639  
     355A      2.764646   356A      2.770405   357A      2.800162  
     358A      2.820637   359A      2.822634   360A      2.858531  
     361A      2.870509   362A      2.893788   363A      2.897968  
     364A      2.917207   365A      2.940205   366A      2.944830  
     367A      2.972962   368A      2.998227   369A      3.011770  
     370A      3.031120   371A      3.063091   372A      3.068159  
     373A      3.077412   374A      3.102741   375A      3.126877  
     376A      3.136010   377A      3.148932   378A      3.197344  
     379A      3.211709   380A      3.221171   381A      3.250358  
     382A      3.263325   383A      3.291050   384A      3.296670  
     385A      3.308170   386A      3.344078   387A      3.351750  
     388A      3.370312   389A      3.382399   390A      3.398918  
     391A      3.413902   392A      3.424014   393A      3.428787  
     394A      3.451620   395A      3.460004   396A      3.474213  
     397A      3.489055   398A      3.497324   399A      3.525809  
     400A      3.534911   401A      3.544903   402A      3.552080  
     403A      3.564748   404A      3.585939   405A      3.598210  
     406A      3.611168   407A      3.613828   408A      3.647376  
     409A      3.652448   410A      3.665050   411A      3.678388  
     412A      3.690384   413A      3.693010   414A      3.703507  
     415A      3.724406   416A      3.740225   417A      3.763421  
     418A      3.782280   419A      3.797760   420A      3.809276  
     421A      3.819440   422A      3.852081   423A      3.853540  
     424A      3.868574   425A      3.878009   426A      3.883438  
     427A      3.896672   428A      3.910425   429A      3.923397  
     430A      3.929070   431A      3.954347   432A      3.957516  
     433A      3.982516   434A      3.992484   435A      3.998531  
     436A      4.021363   437A      4.028600   438A      4.047787  
     439A      4.063885   440A      4.079917   441A      4.100723  
     442A      4.107991   443A      4.114435   444A      4.124645  
     445A      4.153170   446A      4.162798   447A      4.176620  
     448A      4.182671   449A      4.200718   450A      4.220830  
     451A      4.224052   452A      4.247229   453A      4.275731  
     454A      4.279153   455A      4.291707   456A      4.310587  
     457A      4.319782   458A      4.328324   459A      4.330786  
     460A      4.353375   461A      4.355400   462A      4.361647  
     463A      4.370344   464A      4.384177   465A      4.397609  
     466A      4.412425   467A      4.423454   468A      4.435251  
     469A      4.456912   470A      4.474970   471A      4.477799  
     472A      4.502301   473A      4.518681   474A      4.522570  
     475A      4.535185   476A      4.552438   477A      4.562238  
     478A      4.574995   479A      4.641074   480A      4.654880  
     481A      4.676543   482A      4.689772   483A      4.695057  
     484A      4.713051   485A      4.738940   486A      4.780572  
     487A      4.793582   488A      4.814164   489A      4.825181  
     490A      4.832469   491A      4.846937   492A      4.869076  
     493A      4.880007   494A      4.896285   495A      4.916913  
     496A      4.930354   497A      4.948360   498A      4.980841  
     499A      4.997411   500A      5.005226   501A      5.018749  
     502A      5.027593   503A      5.054016   504A      5.093292  
     505A      5.110287   506A      5.118051   507A      5.143779  
     508A      5.175559   509A      5.185324   510A      5.200952  
     511A      5.226753   512A      5.240988   513A      5.250754  
     514A      5.276880   515A      5.279993   516A      5.339544  
     517A      5.360865   518A      5.368084   519A      5.373890  
     520A      5.411038   521A      5.422125   522A      5.435658  
     523A      5.478148   524A      5.504260   525A      5.528718  
     526A      5.536685   527A      5.592485   528A      5.597741  
     529A      5.663258   530A      5.735949   531A      5.753481  
     532A      5.808003   533A      5.829577   534A      5.914142  
     535A      6.042120   536A      6.086498   537A      6.119790  
     538A      6.163747   539A      6.203350   540A      6.243292  
     541A      6.269598   542A      6.305336   543A      6.382982  
     544A      6.453110   545A      6.490490   546A      6.588916  
     547A      6.638402   548A      6.660127   549A      6.726272  
     550A      6.736838   551A      6.764075   552A      6.796261  
     553A      6.869962   554A      6.897653   555A      6.909451  
     556A      6.914918   557A      6.945295   558A      6.976686  
     559A      7.005336   560A      7.041271   561A      7.056342  
     562A      7.126030   563A      7.225380   564A      7.257448  
     565A      7.268892   566A      7.277792   567A      7.365389  
     568A      7.385476   569A      7.403430   570A      7.427999  
     571A      7.454478   572A      7.471429   573A      7.583520  
     574A      7.611448   575A      7.634117   576A      7.641944  
     577A      7.693903   578A      7.740431   579A      7.748192  
     580A      7.787347   581A      7.888380   582A      7.976858  
     583A      7.994801   584A      8.104753   585A      8.275127  
     586A      8.403214   587A      8.552984   588A      8.655745  
     589A     15.273622   590A     15.519768   591A     15.932252  
     592A     16.493746   593A     16.989633   594A     18.548073  
     595A     18.685489   596A     19.457700   597A     19.928466  
     598A     20.232839  

    Final Occupation by Irrep:
              A 
    DOCC [    36 ]

  @DF-RHF Final Energy:  -493.34620672991684

   => Energetics <=

    Nuclear Repulsion Energy =            498.7156006883496389
    One-Electron Energy =               -1663.2524896610811993
    Two-Electron Energy =                 671.1906822428146597
    Total Energy =                       -493.3462067299168439

Computation Completed

*** tstop() called on node37.bme.utexas.edu at Mon Nov  9 20:39:27 2020
Module time:
	user time   =     320.27 seconds =       5.34 minutes
	system time =      72.66 seconds =       1.21 minutes
	total time  =         93 seconds =       1.55 minutes
Total time:
	user time   =     320.27 seconds =       5.34 minutes
	system time =      72.66 seconds =       1.21 minutes
	total time  =         93 seconds =       1.55 minutes
   => Loading Basis Set <=

    Name: (AUG-CC-PVTZ AUX)
    Role: RIFIT
    Keyword: DF_BASIS_MP2
    atoms 1-3   entry O          line   264 file /home/xy3866/psi4conda/share/psi4/basis/aug-cc-pvtz-ri.gbs 
    atoms 4-10  entry C          line   148 file /home/xy3866/psi4conda/share/psi4/basis/aug-cc-pvtz-ri.gbs 
    atoms 11-16 entry H          line    30 file /home/xy3866/psi4conda/share/psi4/basis/aug-cc-pvtz-ri.gbs 


*** tstart() called on node37.bme.utexas.edu
*** at Mon Nov  9 20:39:27 2020


  //>>>>>>>>>>>>>>>>>>>>>>>>>>>>>>>>>>>//
  //               DFMP2               //
  //<<<<<<<<<<<<<<<<<<<<<<<<<<<<<<<<<<<//

	 --------------------------------------------------------
	                          DF-MP2                         
	      2nd-Order Density-Fitted Moller-Plesset Theory     
	              RMP2 Wavefunction,   8 Threads             
	                                                         
	        Rob Parrish, Justin Turney, Andy Simmonett,      
	           Ed Hohenstein, and C. David Sherrill          
	 --------------------------------------------------------

   => Auxiliary Basis Set <=

  Basis Set: (AUG-CC-PVTZ AUX)
    Blend: AUG-CC-PVTZ-RI
    Number of shells: 364
    Number of basis function: 1336
    Number of Cartesian functions: 1690
    Spherical Harmonics?: true
    Max angular momentum: 4

	 --------------------------------------------------------
	                 NBF =   598, NAUX =  1336
	 --------------------------------------------------------
	   CLASS    FOCC     OCC    AOCC    AVIR     VIR    FVIR
	   PAIRS       0      36      36     562     562       0
	 --------------------------------------------------------

  DFHelper Memory: AOs need 3.432 GiB; user supplied 22.352 GiB. Using in-core AOs.


         ------------------------------------------------------------
                                     CPHF                           
                                  Rob Parrish                       
         ------------------------------------------------------------

  ==> Geometry <==

    Molecular point group: c1
    Full point group: C1

    Geometry (in Angstrom), charge = 0, multiplicity = 1:

       Center              X                  Y                   Z               Mass       
    ------------   -----------------  -----------------  -----------------  -----------------
         O           -0.062028855595     2.152557156956    -0.172308705465    15.994914619570
         O           -2.217816855595    -1.349076843044    -0.382970705465    15.994914619570
         O           -2.350147855595     0.768154156956     0.407478294535    15.994914619570
         C           -0.182160855595    -0.226101843044     0.000861294535    12.000000000000
         C            0.584030144405     0.952830156956    -0.071995705465    12.000000000000
         C            0.474298144405    -1.463096843044     0.077528294535    12.000000000000
         C            1.981057144405     0.867999156956    -0.070886705465    12.000000000000
         C            1.864084144405    -1.540146843044     0.086678294535    12.000000000000
         C            2.617420844405    -0.358305343044     0.164882194535    12.000000000000
         C           -1.665925855595    -0.170934843044     0.040452294535    12.000000000000
         H           -0.125347855595    -2.366101843044     0.128959294535     1.007825032230
         H            2.570941144405     1.781817156956    -0.133234705465     1.007825032230
         H            2.355646144405    -2.506518843044     0.153773294535     1.007825032230
         H            3.704290144405    -0.410047843044     0.019409294535     1.007825032230
         H            0.614116144405     2.849680156956    -0.253121705465     1.007825032230
         H           -3.183389855595    -1.219274843044    -0.279115705465     1.007825032230

  Nuclear repulsion =  498.715600688349639
  Reference energy  = -493.346206729916844

  ==> Basis Set <==

  Basis Set: AUG-CC-PVTZ
    Blend: AUG-CC-PVTZ
    Number of shells: 194
    Number of basis function: 598
    Number of Cartesian functions: 700
    Spherical Harmonics?: true
    Max angular momentum: 3

  ==> CGRSolver (by Rob Parrish) <==

   Number of roots    =         1
   Preconditioning    =    JACOBI
   Convergence cutoff =     1E-06
   Maximum iterations =       100

  ==> CPHFRHamiltonian (by Rob Parrish) <== 

  ==> MemDFJK: Density-Fitted J/K Matrices <==

    J tasked:                   Yes
    K tasked:                   Yes
    wK tasked:                   No
    OpenMP threads:               8
    Memory [MiB]:             22888
    Algorithm:                 Disk
    Schwarz Cutoff:           1E-12
    Mask sparsity (%):       5.1605
    Fitting Condition:        1E-10

   => Auxiliary Basis Set <=

  Basis Set: (AUG-CC-PVTZ AUX)
    Blend: AUG-CC-PVTZ-JKFIT
    Number of shells: 384
    Number of basis function: 1316
    Number of Cartesian functions: 1640
    Spherical Harmonics?: true
    Max angular momentum: 4

  ==> CPHF Iterations <==

  => Iterations <=

             Iter  Converged  Remaining    Residual
  CGR           1          0          1   1.177E-01
  CGR           2          0          1   4.188E-02
  CGR           3          0          1   2.377E-02
  CGR           4          0          1   1.057E-02
  CGR           5          0          1   4.915E-03
  CGR           6          0          1   1.729E-03
  CGR           7          0          1   4.944E-04
  CGR           8          0          1   1.661E-04
  CGR           9          0          1   5.466E-05
  CGR          10          0          1   2.230E-05
  CGR          11          0          1   9.757E-06
  CGR          12          0          1   3.952E-06
  CGR          13          0          1   1.650E-06
  CGR          14          1          0   5.826E-07

    CGRSolver converged.

	-----------------------------------------------------------
	 ==================> DF-MP2 Energies <==================== 
	-----------------------------------------------------------
	 Reference Energy          =    -493.3462067299168439 [Eh]
	 Singles Energy            =      -0.0000000000000000 [Eh]
	 Same-Spin Energy          =      -0.5058170353468053 [Eh]
	 Opposite-Spin Energy      =      -1.5056578430582885 [Eh]
	 Correlation Energy        =      -2.0114748784050938 [Eh]
	 Total Energy              =    -495.3576816083219114 [Eh]
	-----------------------------------------------------------
	 ================> DF-SCS-MP2 Energies <================== 
	-----------------------------------------------------------
	 SCS Same-Spin Scale       =       0.3333333333333333 [-]
	 SCS Opposite-Spin Scale   =       1.2000000000000000 [-]
	 SCS Same-Spin Energy      =      -0.1686056784489351 [Eh]
	 SCS Opposite-Spin Energy  =      -1.8067894116699461 [Eh]
	 SCS Correlation Energy    =      -1.9753950901188813 [Eh]
	 SCS Total Energy          =    -495.3216018200357098 [Eh]
	-----------------------------------------------------------



Properties will be evaluated at  -0.000000,  -0.000000,   0.000000 [a0]

Properties computed using the MP2 density matrix

  Nuclear Dipole Moment: [e a0]
     X:     5.5428      Y:    -1.7459      Z:    -0.3413

  Electronic Dipole Moment: [e a0]
     X:    -4.5233      Y:     1.5576      Z:     0.1210

  Dipole Moment: [e a0]
     X:     1.0195      Y:    -0.1883      Z:    -0.2203     Total:     1.0599

  Dipole Moment: [D]
     X:     2.5913      Y:    -0.4786      Z:    -0.5600     Total:     2.6940


*** tstop() called on node37.bme.utexas.edu at Mon Nov  9 20:42:26 2020
Module time:
	user time   =     850.52 seconds =      14.18 minutes
	system time =     109.87 seconds =       1.83 minutes
	total time  =        179 seconds =       2.98 minutes
Total time:
	user time   =    1171.98 seconds =      19.53 minutes
	system time =     182.61 seconds =       3.04 minutes
	total time  =        272 seconds =       4.53 minutes

    Psi4 stopped on: Monday, 09 November 2020 08:42PM
    Psi4 wall time for execution: 0:04:32.45

*** Psi4 exiting successfully. Buy a developer a beer!
