
    -----------------------------------------------------------------------
          Psi4: An Open-Source Ab Initio Electronic Structure Package
                               Psi4 1.3.2 release

                         Git: Rev {HEAD} ecbda83 


    R. M. Parrish, L. A. Burns, D. G. A. Smith, A. C. Simmonett,
    A. E. DePrince III, E. G. Hohenstein, U. Bozkaya, A. Yu. Sokolov,
    R. Di Remigio, R. M. Richard, J. F. Gonthier, A. M. James,
    H. R. McAlexander, A. Kumar, M. Saitow, X. Wang, B. P. Pritchard,
    P. Verma, H. F. Schaefer III, K. Patkowski, R. A. King, E. F. Valeev,
    F. A. Evangelista, J. M. Turney, T. D. Crawford, and C. D. Sherrill,
    J. Chem. Theory Comput. 13(7) pp 3185--3197 (2017).
    (doi: 10.1021/acs.jctc.7b00174)


                         Additional Contributions by
    P. Kraus, H. Kruse, M. H. Lechner, M. C. Schieber, R. A. Shaw,
    A. Alenaizan, R. Galvelis, Z. L. Glick, S. Lehtola, and J. P. Misiewicz

    -----------------------------------------------------------------------


    Psi4 started on: Tuesday, 03 November 2020 03:17AM

    Process ID: 7751
    Host:       node37.bme.utexas.edu
    PSIDATADIR: /home/xy3866/psi4conda/share/psi4
    Memory:     500.0 MiB
    Threads:    8
    
  ==> Input File <==

--------------------------------------------------------------------------
#psi4
#
memory 32 gb

molecule  {
0 1
  O       -0.8411900    -0.2286010    -0.2822800
  C        2.0174600     0.2824600    -0.5354820
  C       -2.1232200    -0.2252560     0.3552070
  C        1.3918360    -0.8685520     0.1861030
  C        2.7655740     1.2103670     0.4230210
  C        0.0733200    -1.0572940     0.3167640
  C       -3.1412729     0.8128789    -0.5582697
  H        2.7145670    -0.0909720    -1.2924960
  H        1.2438280     0.8410150    -1.0636660
  H       -2.5250500    -1.2529680     0.3825710
  H       -2.0263210     0.1331820     1.3936400
  H        2.0399100    -1.6071390     0.6510050
  H        3.2481390     2.0275410    -0.1185540
  H        2.0757450     1.6393580     1.1523020
  H        3.5397370     0.6653480     0.9697790
  H       -0.3482160    -1.8932280     0.8773390
  H       -4.0255760     0.7295450    -0.0161740
  H       -2.6128620     1.7059100    -0.4684560
  H       -3.0981720     0.3293290    -1.4847820
units angstrom
no_reorient  #important for SAPT in psi4, default
symmetry c1  #important for SAPT in psi4, default
}

set PROPERTIES_ORIGIN ["COM"]
properties('MP2/aug-cc-pvtz', properties = ['dipole'])
--------------------------------------------------------------------------

  Memory set to  29.802 GiB by Python driver.
    SCF Algorithm Type (re)set to DF.

*** tstart() called on node37.bme.utexas.edu
*** at Tue Nov  3 03:17:21 2020

   => Loading Basis Set <=

    Name: AUG-CC-PVTZ
    Role: ORBITAL
    Keyword: BASIS
    atoms 1    entry O          line   327 file /home/xy3866/psi4conda/share/psi4/basis/aug-cc-pvtz.gbs 
    atoms 2-7  entry C          line   235 file /home/xy3866/psi4conda/share/psi4/basis/aug-cc-pvtz.gbs 
    atoms 8-19 entry H          line    36 file /home/xy3866/psi4conda/share/psi4/basis/aug-cc-pvtz.gbs 


         ---------------------------------------------------------
                                   SCF
               by Justin Turney, Rob Parrish, Andy Simmonett
                          and Daniel G. A. Smith
                              RHF Reference
                        8 Threads,  30517 MiB Core
         ---------------------------------------------------------

  ==> Geometry <==

    Molecular point group: c1
    Full point group: C1

    Geometry (in Angstrom), charge = 0, multiplicity = 1:

       Center              X                  Y                   Z               Mass       
    ------------   -----------------  -----------------  -----------------  -----------------
         O           -0.826973609367    -0.243097775527    -0.269524041785    15.994914619570
         C            2.031676390633     0.267963224473    -0.522726041785    12.000000000000
         C           -2.109003609367    -0.239752775527     0.367962958215    12.000000000000
         C            1.406052390633    -0.883048775527     0.198858958215    12.000000000000
         C            2.779790390633     1.195870224473     0.435776958215    12.000000000000
         C            0.087536390633    -1.071790775527     0.329519958215    12.000000000000
         C           -3.127056509367     0.798382124473    -0.545513741785    12.000000000000
         H            2.728783390633    -0.105468775527    -1.279740041785     1.007825032230
         H            1.258044390633     0.826518224473    -1.050910041785     1.007825032230
         H           -2.510833609367    -1.267464775527     0.395326958215     1.007825032230
         H           -2.012104609367     0.118685224473     1.406395958215     1.007825032230
         H            2.054126390633    -1.621635775527     0.663760958215     1.007825032230
         H            3.262355390633     2.013044224473    -0.105798041785     1.007825032230
         H            2.089961390633     1.624861224473     1.165057958215     1.007825032230
         H            3.553953390633     0.650851224473     0.982534958215     1.007825032230
         H           -0.333999609367    -1.907724775527     0.890094958215     1.007825032230
         H           -4.011359609367     0.715048224473    -0.003418041785     1.007825032230
         H           -2.598645609367     1.691413224473    -0.455700041785     1.007825032230
         H           -3.083955609367     0.314832224473    -1.472026041785     1.007825032230

  Running in c1 symmetry.

  Rotational constants: A =      0.18244  B =      0.03706  C =      0.03334 [cm^-1]
  Rotational constants: A =   5469.27981  B =   1110.95211  C =    999.54179 [MHz]
  Nuclear repulsion =  299.522739207479447

  Charge       = 0
  Multiplicity = 1
  Electrons    = 56
  Nalpha       = 28
  Nbeta        = 28

  ==> Algorithm <==

  SCF Algorithm Type is DF.
  DIIS enabled.
  MOM disabled.
  Fractional occupation disabled.
  Guess Type is SAD.
  Energy threshold   = 1.00e-10
  Density threshold  = 1.00e-10
  Integral threshold = 0.00e+00

  ==> Primary Basis <==

  Basis Set: AUG-CC-PVTZ
    Blend: AUG-CC-PVTZ
    Number of shells: 206
    Number of basis function: 598
    Number of Cartesian functions: 685
    Spherical Harmonics?: true
    Max angular momentum: 3

   => Loading Basis Set <=

    Name: (AUG-CC-PVTZ AUX)
    Role: JKFIT
    Keyword: DF_BASIS_SCF
    atoms 1    entry O          line   286 file /home/xy3866/psi4conda/share/psi4/basis/aug-cc-pvtz-jkfit.gbs 
    atoms 2-7  entry C          line   162 file /home/xy3866/psi4conda/share/psi4/basis/aug-cc-pvtz-jkfit.gbs 
    atoms 8-19 entry H          line    70 file /home/xy3866/psi4conda/share/psi4/basis/aug-cc-pvtz-jkfit.gbs 

  ==> Pre-Iterations <==

   -------------------------------------------------------
    Irrep   Nso     Nmo     Nalpha   Nbeta   Ndocc  Nsocc
   -------------------------------------------------------
     A        598     598       0       0       0       0
   -------------------------------------------------------
    Total     598     598      28      28      28       0
   -------------------------------------------------------

  ==> Integral Setup <==

  DFHelper Memory: AOs need 3.272 GiB; user supplied 22.352 GiB. Using in-core AOs.

  ==> MemDFJK: Density-Fitted J/K Matrices <==

    J tasked:                   Yes
    K tasked:                   Yes
    wK tasked:                   No
    OpenMP threads:               8
    Memory [MiB]:             22888
    Algorithm:                 Disk
    Schwarz Cutoff:           1E-12
    Mask sparsity (%):       7.1498
    Fitting Condition:        1E-10

   => Auxiliary Basis Set <=

  Basis Set: (AUG-CC-PVTZ AUX)
    Blend: AUG-CC-PVTZ-JKFIT
    Number of shells: 378
    Number of basis function: 1280
    Number of Cartesian functions: 1577
    Spherical Harmonics?: true
    Max angular momentum: 4

  Minimum eigenvalue in the overlap matrix is 2.1410648196E-06.
  Using Symmetric Orthogonalization.

  SCF Guess: Superposition of Atomic Densities via on-the-fly atomic UHF.

  ==> Iterations <==

                           Total Energy        Delta E     RMS |[F,P]|

   @DF-RHF iter SAD:  -307.98447088011920   -3.07984e+02   0.00000e+00 
   @DF-RHF iter   1:  -308.84423607058636   -8.59765e-01   1.11578e-03 DIIS
   @DF-RHF iter   2:  -309.06005380962915   -2.15818e-01   5.29427e-04 DIIS
   @DF-RHF iter   3:  -309.10886561993647   -4.88118e-02   1.11435e-04 DIIS
   @DF-RHF iter   4:  -309.11250272139000   -3.63710e-03   4.00270e-05 DIIS
   @DF-RHF iter   5:  -309.11287726167222   -3.74540e-04   7.57376e-06 DIIS
   @DF-RHF iter   6:  -309.11290404668682   -2.67850e-05   2.72825e-06 DIIS
   @DF-RHF iter   7:  -309.11290675411647   -2.70743e-06   9.37764e-07 DIIS
   @DF-RHF iter   8:  -309.11290716823908   -4.14123e-07   4.35083e-07 DIIS
   @DF-RHF iter   9:  -309.11290723300891   -6.47698e-08   1.36848e-07 DIIS
   @DF-RHF iter  10:  -309.11290724161489   -8.60598e-09   4.66301e-08 DIIS
   @DF-RHF iter  11:  -309.11290724267786   -1.06297e-09   1.41724e-08 DIIS
   @DF-RHF iter  12:  -309.11290724278098   -1.03114e-10   4.48333e-09 DIIS
   @DF-RHF iter  13:  -309.11290724279240   -1.14255e-11   1.41594e-09 DIIS
   @DF-RHF iter  14:  -309.11290724279093    1.47793e-12   3.49002e-10 DIIS
   @DF-RHF iter  15:  -309.11290724279172   -7.95808e-13   9.02880e-11 DIIS
  Energy and wave function converged.


  ==> Post-Iterations <==

    Orbital Energies [Eh]
    ---------------------

    Doubly Occupied:                                                      

       1A    -20.572313     2A    -11.292113     3A    -11.278097  
       4A    -11.220739     5A    -11.214737     6A    -11.213180  
       7A    -11.207392     8A     -1.390958     9A     -1.071291  
      10A     -1.006689    11A     -0.964601    12A     -0.860249  
      13A     -0.843427    14A     -0.752540    15A     -0.679948  
      16A     -0.649764    17A     -0.638916    18A     -0.596610  
      19A     -0.579971    20A     -0.574150    21A     -0.549833  
      22A     -0.532132    23A     -0.512759    24A     -0.481675  
      25A     -0.478228    26A     -0.467799    27A     -0.440375  
      28A     -0.325240  

    Virtual:                                                              

      29A      0.029283    30A      0.034651    31A      0.036525  
      32A      0.039656    33A      0.048695    34A      0.049742  
      35A      0.052619    36A      0.059680    37A      0.070561  
      38A      0.071872    39A      0.073934    40A      0.082129  
      41A      0.100975    42A      0.108210    43A      0.118860  
      44A      0.119939    45A      0.123799    46A      0.128293  
      47A      0.134337    48A      0.134915    49A      0.138090  
      50A      0.140838    51A      0.143419    52A      0.147030  
      53A      0.149684    54A      0.152956    55A      0.157113  
      56A      0.159728    57A      0.169335    58A      0.176258  
      59A      0.182488    60A      0.199533    61A      0.200760  
      62A      0.209540    63A      0.216361    64A      0.222060  
      65A      0.232747    66A      0.243987    67A      0.245876  
      68A      0.250660    69A      0.262107    70A      0.269034  
      71A      0.272733    72A      0.278480    73A      0.288378  
      74A      0.291288    75A      0.295371    76A      0.299670  
      77A      0.303902    78A      0.312560    79A      0.315891  
      80A      0.321189    81A      0.333281    82A      0.337075  
      83A      0.341399    84A      0.344261    85A      0.347921  
      86A      0.355303    87A      0.361471    88A      0.364085  
      89A      0.368259    90A      0.370748    91A      0.378522  
      92A      0.380534    93A      0.385851    94A      0.388661  
      95A      0.391232    96A      0.394927    97A      0.396685  
      98A      0.404077    99A      0.410559   100A      0.418097  
     101A      0.428148   102A      0.432628   103A      0.432927  
     104A      0.435825   105A      0.443264   106A      0.445614  
     107A      0.452394   108A      0.458078   109A      0.462153  
     110A      0.467161   111A      0.468583   112A      0.474897  
     113A      0.475721   114A      0.479600   115A      0.482465  
     116A      0.489292   117A      0.493314   118A      0.498025  
     119A      0.504423   120A      0.508540   121A      0.511186  
     122A      0.516253   123A      0.521085   124A      0.524621  
     125A      0.529061   126A      0.530993   127A      0.542476  
     128A      0.551298   129A      0.560230   130A      0.561947  
     131A      0.572000   132A      0.573721   133A      0.576468  
     134A      0.583540   135A      0.590499   136A      0.596838  
     137A      0.604459   138A      0.620248   139A      0.627291  
     140A      0.629264   141A      0.631574   142A      0.639596  
     143A      0.648658   144A      0.659636   145A      0.666277  
     146A      0.668421   147A      0.682603   148A      0.691935  
     149A      0.698976   150A      0.714753   151A      0.729387  
     152A      0.744805   153A      0.752351   154A      0.770817  
     155A      0.790113   156A      0.790780   157A      0.801334  
     158A      0.811200   159A      0.813081   160A      0.821520  
     161A      0.828026   162A      0.833651   163A      0.839806  
     164A      0.849318   165A      0.853798   166A      0.860126  
     167A      0.864870   168A      0.871791   169A      0.875773  
     170A      0.880475   171A      0.884305   172A      0.886459  
     173A      0.893704   174A      0.900425   175A      0.914396  
     176A      0.919491   177A      0.923106   178A      0.933618  
     179A      0.934266   180A      0.937262   181A      0.940280  
     182A      0.944909   183A      0.949424   184A      0.953986  
     185A      0.958208   186A      0.966630   187A      0.967960  
     188A      0.975538   189A      0.980289   190A      0.986505  
     191A      0.995063   192A      1.006997   193A      1.012500  
     194A      1.020465   195A      1.022307   196A      1.033046  
     197A      1.043711   198A      1.049392   199A      1.056801  
     200A      1.058284   201A      1.065821   202A      1.074369  
     203A      1.084231   204A      1.086401   205A      1.097364  
     206A      1.102217   207A      1.106830   208A      1.115627  
     209A      1.119115   210A      1.126091   211A      1.132837  
     212A      1.141342   213A      1.146306   214A      1.154669  
     215A      1.161580   216A      1.166488   217A      1.172330  
     218A      1.177121   219A      1.181207   220A      1.196519  
     221A      1.204850   222A      1.209639   223A      1.213380  
     224A      1.225892   225A      1.231252   226A      1.242286  
     227A      1.243164   228A      1.253502   229A      1.258161  
     230A      1.262397   231A      1.268467   232A      1.272092  
     233A      1.288136   234A      1.294771   235A      1.299658  
     236A      1.309242   237A      1.318642   238A      1.327347  
     239A      1.331892   240A      1.339755   241A      1.342510  
     242A      1.363883   243A      1.366248   244A      1.377249  
     245A      1.390482   246A      1.409861   247A      1.415216  
     248A      1.425405   249A      1.431813   250A      1.447180  
     251A      1.452491   252A      1.459565   253A      1.468009  
     254A      1.474543   255A      1.491991   256A      1.493559  
     257A      1.503948   258A      1.525756   259A      1.535570  
     260A      1.540700   261A      1.554421   262A      1.557165  
     263A      1.565858   264A      1.577522   265A      1.597681  
     266A      1.604240   267A      1.612847   268A      1.619447  
     269A      1.633075   270A      1.643304   271A      1.649504  
     272A      1.653017   273A      1.659024   274A      1.662786  
     275A      1.671621   276A      1.681097   277A      1.691059  
     278A      1.698630   279A      1.700248   280A      1.708749  
     281A      1.712744   282A      1.717444   283A      1.723441  
     284A      1.734153   285A      1.738334   286A      1.749037  
     287A      1.749411   288A      1.755737   289A      1.767225  
     290A      1.774158   291A      1.782709   292A      1.792564  
     293A      1.807090   294A      1.818623   295A      1.827337  
     296A      1.841805   297A      1.850932   298A      1.851820  
     299A      1.857675   300A      1.875213   301A      1.878996  
     302A      1.887713   303A      1.900697   304A      1.903998  
     305A      1.915612   306A      1.926683   307A      1.935072  
     308A      1.952069   309A      1.958735   310A      1.962391  
     311A      1.970873   312A      1.984291   313A      1.997770  
     314A      2.003152   315A      2.013182   316A      2.019972  
     317A      2.024048   318A      2.041794   319A      2.063463  
     320A      2.065280   321A      2.080418   322A      2.095657  
     323A      2.115724   324A      2.122191   325A      2.135734  
     326A      2.145345   327A      2.150742   328A      2.170059  
     329A      2.190981   330A      2.194401   331A      2.204827  
     332A      2.221281   333A      2.227166   334A      2.242792  
     335A      2.255669   336A      2.264620   337A      2.274795  
     338A      2.287052   339A      2.290432   340A      2.306414  
     341A      2.319388   342A      2.322836   343A      2.335438  
     344A      2.346316   345A      2.369527   346A      2.394145  
     347A      2.401130   348A      2.418256   349A      2.424453  
     350A      2.448503   351A      2.453125   352A      2.468236  
     353A      2.481351   354A      2.494839   355A      2.524350  
     356A      2.551058   357A      2.576642   358A      2.611513  
     359A      2.647280   360A      2.667004   361A      2.693333  
     362A      2.727134   363A      2.742649   364A      2.760708  
     365A      2.808274   366A      2.834420   367A      2.838930  
     368A      2.906072   369A      2.923461   370A      2.958905  
     371A      3.014192   372A      3.050872   373A      3.068162  
     374A      3.113153   375A      3.134111   376A      3.161604  
     377A      3.196954   378A      3.215931   379A      3.245177  
     380A      3.267077   381A      3.298818   382A      3.306706  
     383A      3.340475   384A      3.360978   385A      3.399671  
     386A      3.414280   387A      3.430449   388A      3.439730  
     389A      3.459306   390A      3.467341   391A      3.475552  
     392A      3.497130   393A      3.498562   394A      3.511145  
     395A      3.531962   396A      3.552503   397A      3.572689  
     398A      3.582286   399A      3.593070   400A      3.604354  
     401A      3.615097   402A      3.626284   403A      3.636622  
     404A      3.653981   405A      3.666580   406A      3.668170  
     407A      3.685144   408A      3.695295   409A      3.702623  
     410A      3.718300   411A      3.720326   412A      3.728574  
     413A      3.737179   414A      3.747867   415A      3.757107  
     416A      3.765299   417A      3.786122   418A      3.790340  
     419A      3.821141   420A      3.839834   421A      3.846386  
     422A      3.861027   423A      3.870630   424A      3.880406  
     425A      3.890548   426A      3.904093   427A      3.927476  
     428A      3.932294   429A      3.948077   430A      3.954187  
     431A      3.962853   432A      3.973844   433A      3.978137  
     434A      3.985454   435A      4.009711   436A      4.011793  
     437A      4.015422   438A      4.029641   439A      4.033817  
     440A      4.052565   441A      4.060495   442A      4.067194  
     443A      4.078066   444A      4.102211   445A      4.118627  
     446A      4.125829   447A      4.139333   448A      4.159616  
     449A      4.174341   450A      4.182361   451A      4.190844  
     452A      4.209610   453A      4.218110   454A      4.236154  
     455A      4.246663   456A      4.261324   457A      4.268682  
     458A      4.281660   459A      4.296395   460A      4.302146  
     461A      4.328654   462A      4.336573   463A      4.350896  
     464A      4.360365   465A      4.374728   466A      4.396621  
     467A      4.397573   468A      4.433148   469A      4.445460  
     470A      4.455775   471A      4.485918   472A      4.488962  
     473A      4.509309   474A      4.523106   475A      4.548374  
     476A      4.555036   477A      4.568456   478A      4.574453  
     479A      4.594966   480A      4.614825   481A      4.635999  
     482A      4.651919   483A      4.665096   484A      4.689397  
     485A      4.699982   486A      4.721307   487A      4.742443  
     488A      4.774365   489A      4.802371   490A      4.820307  
     491A      4.829586   492A      4.846784   493A      4.863897  
     494A      4.870618   495A      4.874886   496A      4.887941  
     497A      4.892951   498A      4.911892   499A      4.926956  
     500A      4.932152   501A      4.944794   502A      4.958317  
     503A      4.961847   504A      4.987967   505A      5.023467  
     506A      5.053759   507A      5.070048   508A      5.082421  
     509A      5.093085   510A      5.107292   511A      5.111733  
     512A      5.124596   513A      5.146832   514A      5.160166  
     515A      5.162617   516A      5.183753   517A      5.205784  
     518A      5.207895   519A      5.227912   520A      5.235999  
     521A      5.259403   522A      5.270397   523A      5.284733  
     524A      5.291483   525A      5.309979   526A      5.328414  
     527A      5.351562   528A      5.374574   529A      5.392662  
     530A      5.413296   531A      5.416126   532A      5.432050  
     533A      5.452291   534A      5.461202   535A      5.489369  
     536A      5.502159   537A      5.514354   538A      5.542059  
     539A      5.572807   540A      5.578101   541A      5.622512  
     542A      5.629549   543A      5.643096   544A      5.676683  
     545A      5.703207   546A      5.728610   547A      5.766127  
     548A      5.786348   549A      5.799258   550A      5.847919  
     551A      5.890116   552A      5.928676   553A      5.932912  
     554A      5.982304   555A      6.005320   556A      6.025072  
     557A      6.049150   558A      6.052508   559A      6.068727  
     560A      6.109239   561A      6.163784   562A      6.193921  
     563A      6.216204   564A      6.243288   565A      6.294767  
     566A      6.328922   567A      6.426820   568A      6.452908  
     569A      6.533052   570A      6.557920   571A      6.641798  
     572A      6.679665   573A      6.686593   574A      6.754209  
     575A      6.773721   576A      6.802534   577A      6.829659  
     578A      6.914173   579A      6.995481   580A      7.030545  
     581A      7.065035   582A      7.227828   583A      7.259679  
     584A      7.475321   585A      7.569698   586A      7.695966  
     587A      7.725520   588A      7.863360   589A      7.964777  
     590A      8.364714   591A      8.439983   592A     15.159869  
     593A     17.222478   594A     17.422795   595A     17.919890  
     596A     18.401327   597A     18.710520   598A     19.658706  

    Final Occupation by Irrep:
              A 
    DOCC [    28 ]

  @DF-RHF Final Energy:  -309.11290724279172

   => Energetics <=

    Nuclear Repulsion Energy =            299.5227392074794466
    One-Electron Energy =               -1012.4798405392026552
    Two-Electron Energy =                 403.8441940889314310
    Total Energy =                       -309.1129072427917208

Computation Completed

*** tstop() called on node37.bme.utexas.edu at Tue Nov  3 03:18:43 2020
Module time:
	user time   =     266.04 seconds =       4.43 minutes
	system time =      62.71 seconds =       1.05 minutes
	total time  =         82 seconds =       1.37 minutes
Total time:
	user time   =     266.04 seconds =       4.43 minutes
	system time =      62.71 seconds =       1.05 minutes
	total time  =         82 seconds =       1.37 minutes
   => Loading Basis Set <=

    Name: (AUG-CC-PVTZ AUX)
    Role: RIFIT
    Keyword: DF_BASIS_MP2
    atoms 1    entry O          line   264 file /home/xy3866/psi4conda/share/psi4/basis/aug-cc-pvtz-ri.gbs 
    atoms 2-7  entry C          line   148 file /home/xy3866/psi4conda/share/psi4/basis/aug-cc-pvtz-ri.gbs 
    atoms 8-19 entry H          line    30 file /home/xy3866/psi4conda/share/psi4/basis/aug-cc-pvtz-ri.gbs 


*** tstart() called on node37.bme.utexas.edu
*** at Tue Nov  3 03:18:43 2020


  //>>>>>>>>>>>>>>>>>>>>>>>>>>>>>>>>>>>//
  //               DFMP2               //
  //<<<<<<<<<<<<<<<<<<<<<<<<<<<<<<<<<<<//

	 --------------------------------------------------------
	                          DF-MP2                         
	      2nd-Order Density-Fitted Moller-Plesset Theory     
	              RMP2 Wavefunction,   8 Threads             
	                                                         
	        Rob Parrish, Justin Turney, Andy Simmonett,      
	           Ed Hohenstein, and C. David Sherrill          
	 --------------------------------------------------------

   => Auxiliary Basis Set <=

  Basis Set: (AUG-CC-PVTZ AUX)
    Blend: AUG-CC-PVTZ-RI
    Number of shells: 364
    Number of basis function: 1294
    Number of Cartesian functions: 1612
    Spherical Harmonics?: true
    Max angular momentum: 4

	 --------------------------------------------------------
	                 NBF =   598, NAUX =  1294
	 --------------------------------------------------------
	   CLASS    FOCC     OCC    AOCC    AVIR     VIR    FVIR
	   PAIRS       0      28      28     570     570       0
	 --------------------------------------------------------

  DFHelper Memory: AOs need 3.272 GiB; user supplied 22.352 GiB. Using in-core AOs.


         ------------------------------------------------------------
                                     CPHF                           
                                  Rob Parrish                       
         ------------------------------------------------------------

  ==> Geometry <==

    Molecular point group: c1
    Full point group: C1

    Geometry (in Angstrom), charge = 0, multiplicity = 1:

       Center              X                  Y                   Z               Mass       
    ------------   -----------------  -----------------  -----------------  -----------------
         O           -0.826973609367    -0.243097775527    -0.269524041785    15.994914619570
         C            2.031676390633     0.267963224473    -0.522726041785    12.000000000000
         C           -2.109003609367    -0.239752775527     0.367962958215    12.000000000000
         C            1.406052390633    -0.883048775527     0.198858958215    12.000000000000
         C            2.779790390633     1.195870224473     0.435776958215    12.000000000000
         C            0.087536390633    -1.071790775527     0.329519958215    12.000000000000
         C           -3.127056509367     0.798382124473    -0.545513741785    12.000000000000
         H            2.728783390633    -0.105468775527    -1.279740041785     1.007825032230
         H            1.258044390633     0.826518224473    -1.050910041785     1.007825032230
         H           -2.510833609367    -1.267464775527     0.395326958215     1.007825032230
         H           -2.012104609367     0.118685224473     1.406395958215     1.007825032230
         H            2.054126390633    -1.621635775527     0.663760958215     1.007825032230
         H            3.262355390633     2.013044224473    -0.105798041785     1.007825032230
         H            2.089961390633     1.624861224473     1.165057958215     1.007825032230
         H            3.553953390633     0.650851224473     0.982534958215     1.007825032230
         H           -0.333999609367    -1.907724775527     0.890094958215     1.007825032230
         H           -4.011359609367     0.715048224473    -0.003418041785     1.007825032230
         H           -2.598645609367     1.691413224473    -0.455700041785     1.007825032230
         H           -3.083955609367     0.314832224473    -1.472026041785     1.007825032230

  Nuclear repulsion =  299.522739207479447
  Reference energy  = -309.112907242791721

  ==> Basis Set <==

  Basis Set: AUG-CC-PVTZ
    Blend: AUG-CC-PVTZ
    Number of shells: 206
    Number of basis function: 598
    Number of Cartesian functions: 685
    Spherical Harmonics?: true
    Max angular momentum: 3

  ==> CGRSolver (by Rob Parrish) <==

   Number of roots    =         1
   Preconditioning    =    JACOBI
   Convergence cutoff =     1E-06
   Maximum iterations =       100

  ==> CPHFRHamiltonian (by Rob Parrish) <== 

  ==> MemDFJK: Density-Fitted J/K Matrices <==

    J tasked:                   Yes
    K tasked:                   Yes
    wK tasked:                   No
    OpenMP threads:               8
    Memory [MiB]:             22888
    Algorithm:                 Disk
    Schwarz Cutoff:           1E-12
    Mask sparsity (%):       7.1498
    Fitting Condition:        1E-10

   => Auxiliary Basis Set <=

  Basis Set: (AUG-CC-PVTZ AUX)
    Blend: AUG-CC-PVTZ-JKFIT
    Number of shells: 378
    Number of basis function: 1280
    Number of Cartesian functions: 1577
    Spherical Harmonics?: true
    Max angular momentum: 4

  ==> CPHF Iterations <==

  => Iterations <=

             Iter  Converged  Remaining    Residual
  CGR           1          0          1   8.997E-02
  CGR           2          0          1   2.385E-02
  CGR           3          0          1   8.757E-03
  CGR           4          0          1   2.381E-03
  CGR           5          0          1   6.889E-04
  CGR           6          0          1   2.287E-04
  CGR           7          0          1   6.553E-05
  CGR           8          0          1   2.814E-05
  CGR           9          0          1   9.452E-06
  CGR          10          0          1   2.886E-06
  CGR          11          1          0   7.049E-07

    CGRSolver converged.

	-----------------------------------------------------------
	 ==================> DF-MP2 Energies <==================== 
	-----------------------------------------------------------
	 Reference Energy          =    -309.1129072427917208 [Eh]
	 Singles Energy            =      -0.0000000000000000 [Eh]
	 Same-Spin Energy          =      -0.3138791342703767 [Eh]
	 Opposite-Spin Energy      =      -1.1006860698097878 [Eh]
	 Correlation Energy        =      -1.4145652040801644 [Eh]
	 Total Energy              =    -310.5274724468719114 [Eh]
	-----------------------------------------------------------
	 ================> DF-SCS-MP2 Energies <================== 
	-----------------------------------------------------------
	 SCS Same-Spin Scale       =       0.3333333333333333 [-]
	 SCS Opposite-Spin Scale   =       1.2000000000000000 [-]
	 SCS Same-Spin Energy      =      -0.1046263780901256 [Eh]
	 SCS Opposite-Spin Energy  =      -1.3208232837717453 [Eh]
	 SCS Correlation Energy    =      -1.4254496618618708 [Eh]
	 SCS Total Energy          =    -310.5383569046535968 [Eh]
	-----------------------------------------------------------



Properties will be evaluated at  -0.000000,  -0.000000,  -0.000000 [a0]

Properties computed using the MP2 density matrix

  Nuclear Dipole Moment: [e a0]
     X:     0.3676      Y:     2.8609      Z:     1.0633

  Electronic Dipole Moment: [e a0]
     X:    -0.7642      Y:    -2.9558      Z:    -0.7663

  Dipole Moment: [e a0]
     X:    -0.3966      Y:    -0.0949      Z:     0.2970     Total:     0.5045

  Dipole Moment: [D]
     X:    -1.0080      Y:    -0.2412      Z:     0.7549     Total:     1.2822


*** tstop() called on node37.bme.utexas.edu at Tue Nov  3 03:21:26 2020
Module time:
	user time   =     763.97 seconds =      12.73 minutes
	system time =     122.73 seconds =       2.05 minutes
	total time  =        163 seconds =       2.72 minutes
Total time:
	user time   =    1030.20 seconds =      17.17 minutes
	system time =     185.45 seconds =       3.09 minutes
	total time  =        245 seconds =       4.08 minutes

    Psi4 stopped on: Tuesday, 03 November 2020 03:21AM
    Psi4 wall time for execution: 0:04:04.70

*** Psi4 exiting successfully. Buy a developer a beer!
