
    -----------------------------------------------------------------------
          Psi4: An Open-Source Ab Initio Electronic Structure Package
                               Psi4 1.3.2 release

                         Git: Rev {HEAD} ecbda83 


    R. M. Parrish, L. A. Burns, D. G. A. Smith, A. C. Simmonett,
    A. E. DePrince III, E. G. Hohenstein, U. Bozkaya, A. Yu. Sokolov,
    R. Di Remigio, R. M. Richard, J. F. Gonthier, A. M. James,
    H. R. McAlexander, A. Kumar, M. Saitow, X. Wang, B. P. Pritchard,
    P. Verma, H. F. Schaefer III, K. Patkowski, R. A. King, E. F. Valeev,
    F. A. Evangelista, J. M. Turney, T. D. Crawford, and C. D. Sherrill,
    J. Chem. Theory Comput. 13(7) pp 3185--3197 (2017).
    (doi: 10.1021/acs.jctc.7b00174)


                         Additional Contributions by
    P. Kraus, H. Kruse, M. H. Lechner, M. C. Schieber, R. A. Shaw,
    A. Alenaizan, R. Galvelis, Z. L. Glick, S. Lehtola, and J. P. Misiewicz

    -----------------------------------------------------------------------


    Psi4 started on: Monday, 02 November 2020 11:16PM

    Process ID: 22209
    Host:       node37.bme.utexas.edu
    PSIDATADIR: /home/xy3866/psi4conda/share/psi4
    Memory:     500.0 MiB
    Threads:    8
    
  ==> Input File <==

--------------------------------------------------------------------------
#psi4
#
memory 32 gb

molecule  {
0 1
  O       -0.8480550    -0.3026996    -0.2912901
  C        2.0174600     0.2824600    -0.5354820
  C       -2.1232200    -0.2252560     0.3552070
  C        1.3918360    -0.8685520     0.1861030
  C        2.7655740     1.2103670     0.4230210
  C        0.0733200    -1.0572940     0.3167640
  C       -3.0226980     0.6919650    -0.4518750
  H        2.7145670    -0.0909720    -1.2924960
  H        1.2438280     0.8410150    -1.0636660
  H       -2.4770765    -1.2708149     0.3557457
  H       -2.0263210     0.1331820     1.3936400
  H        2.0399100    -1.6071390     0.6510050
  H        3.2481390     2.0275410    -0.1185540
  H        2.0757450     1.6393580     1.1523020
  H        3.5397370     0.6653480     0.9697790
  H       -0.3482160    -1.8932280     0.8773390
  H       -4.0255760     0.7295450    -0.0161740
  H       -2.6128620     1.7059100    -0.4684560
  H       -3.0981720     0.3293290    -1.4847820
units angstrom
no_reorient  #important for SAPT in psi4, default
symmetry c1  #important for SAPT in psi4, default
}

set PROPERTIES_ORIGIN ["COM"]
properties('MP2/aug-cc-pvtz', properties = ['dipole'])
--------------------------------------------------------------------------

  Memory set to  29.802 GiB by Python driver.
    SCF Algorithm Type (re)set to DF.

*** tstart() called on node37.bme.utexas.edu
*** at Mon Nov  2 23:16:32 2020

   => Loading Basis Set <=

    Name: AUG-CC-PVTZ
    Role: ORBITAL
    Keyword: BASIS
    atoms 1    entry O          line   327 file /home/xy3866/psi4conda/share/psi4/basis/aug-cc-pvtz.gbs 
    atoms 2-7  entry C          line   235 file /home/xy3866/psi4conda/share/psi4/basis/aug-cc-pvtz.gbs 
    atoms 8-19 entry H          line    36 file /home/xy3866/psi4conda/share/psi4/basis/aug-cc-pvtz.gbs 


         ---------------------------------------------------------
                                   SCF
               by Justin Turney, Rob Parrish, Andy Simmonett
                          and Daniel G. A. Smith
                              RHF Reference
                        8 Threads,  30517 MiB Core
         ---------------------------------------------------------

  ==> Geometry <==

    Molecular point group: c1
    Full point group: C1

    Geometry (in Angstrom), charge = 0, multiplicity = 1:

       Center              X                  Y                   Z               Mass       
    ------------   -----------------  -----------------  -----------------  -----------------
         O           -0.847440954496    -0.290678386151    -0.289580185350    15.994914619570
         C            2.018074045504     0.294481213849    -0.533772085350    12.000000000000
         C           -2.122605954496    -0.213234786151     0.356916914650    12.000000000000
         C            1.392450045504    -0.856530786151     0.187812914650    12.000000000000
         C            2.766188045504     1.222388213849     0.424730914650    12.000000000000
         C            0.073934045504    -1.045272786151     0.318473914650    12.000000000000
         C           -3.022083954496     0.703986213849    -0.450165085350    12.000000000000
         H            2.715181045504    -0.078950786151    -1.290786085350     1.007825032230
         H            1.244442045504     0.853036213849    -1.061956085350     1.007825032230
         H           -2.476462454496    -1.258793686151     0.357455614650     1.007825032230
         H           -2.025706954496     0.145203213849     1.395349914650     1.007825032230
         H            2.040524045504    -1.595117786151     0.652714914650     1.007825032230
         H            3.248753045504     2.039562213849    -0.116844085350     1.007825032230
         H            2.076359045504     1.651379213849     1.154011914650     1.007825032230
         H            3.540351045504     0.677369213849     0.971488914650     1.007825032230
         H           -0.347601954496    -1.881206786151     0.879048914650     1.007825032230
         H           -4.024961954496     0.741566213849    -0.014464085350     1.007825032230
         H           -2.612247954496     1.717931213849    -0.466746085350     1.007825032230
         H           -3.097557954496     0.341350213849    -1.483072085350     1.007825032230

  Running in c1 symmetry.

  Rotational constants: A =      0.18842  B =      0.03778  C =      0.03411 [cm^-1]
  Rotational constants: A =   5648.79678  B =   1132.49712  C =   1022.69875 [MHz]
  Nuclear repulsion =  302.499348647963302

  Charge       = 0
  Multiplicity = 1
  Electrons    = 56
  Nalpha       = 28
  Nbeta        = 28

  ==> Algorithm <==

  SCF Algorithm Type is DF.
  DIIS enabled.
  MOM disabled.
  Fractional occupation disabled.
  Guess Type is SAD.
  Energy threshold   = 1.00e-10
  Density threshold  = 1.00e-10
  Integral threshold = 0.00e+00

  ==> Primary Basis <==

  Basis Set: AUG-CC-PVTZ
    Blend: AUG-CC-PVTZ
    Number of shells: 206
    Number of basis function: 598
    Number of Cartesian functions: 685
    Spherical Harmonics?: true
    Max angular momentum: 3

   => Loading Basis Set <=

    Name: (AUG-CC-PVTZ AUX)
    Role: JKFIT
    Keyword: DF_BASIS_SCF
    atoms 1    entry O          line   286 file /home/xy3866/psi4conda/share/psi4/basis/aug-cc-pvtz-jkfit.gbs 
    atoms 2-7  entry C          line   162 file /home/xy3866/psi4conda/share/psi4/basis/aug-cc-pvtz-jkfit.gbs 
    atoms 8-19 entry H          line    70 file /home/xy3866/psi4conda/share/psi4/basis/aug-cc-pvtz-jkfit.gbs 

  ==> Pre-Iterations <==

   -------------------------------------------------------
    Irrep   Nso     Nmo     Nalpha   Nbeta   Ndocc  Nsocc
   -------------------------------------------------------
     A        598     598       0       0       0       0
   -------------------------------------------------------
    Total     598     598      28      28      28       0
   -------------------------------------------------------

  ==> Integral Setup <==

  DFHelper Memory: AOs need 3.277 GiB; user supplied 22.352 GiB. Using in-core AOs.

  ==> MemDFJK: Density-Fitted J/K Matrices <==

    J tasked:                   Yes
    K tasked:                   Yes
    wK tasked:                   No
    OpenMP threads:               8
    Memory [MiB]:             22888
    Algorithm:                 Disk
    Schwarz Cutoff:           1E-12
    Mask sparsity (%):       7.0178
    Fitting Condition:        1E-10

   => Auxiliary Basis Set <=

  Basis Set: (AUG-CC-PVTZ AUX)
    Blend: AUG-CC-PVTZ-JKFIT
    Number of shells: 378
    Number of basis function: 1280
    Number of Cartesian functions: 1577
    Spherical Harmonics?: true
    Max angular momentum: 4

  Minimum eigenvalue in the overlap matrix is 2.1334958161E-06.
  Using Symmetric Orthogonalization.

  SCF Guess: Superposition of Atomic Densities via on-the-fly atomic UHF.

  ==> Iterations <==

                           Total Energy        Delta E     RMS |[F,P]|

   @DF-RHF iter SAD:  -308.23106150747009   -3.08231e+02   0.00000e+00 
   @DF-RHF iter   1:  -308.86245597449403   -6.31394e-01   1.12929e-03 DIIS
   @DF-RHF iter   2:  -309.08649819312859   -2.24042e-01   5.31817e-04 DIIS
   @DF-RHF iter   3:  -309.13600237513856   -4.95042e-02   1.08262e-04 DIIS
   @DF-RHF iter   4:  -309.13955230057638   -3.54993e-03   3.87316e-05 DIIS
   @DF-RHF iter   5:  -309.13988830480349   -3.36004e-04   7.21487e-06 DIIS
   @DF-RHF iter   6:  -309.13991228610962   -2.39813e-05   2.55052e-06 DIIS
   @DF-RHF iter   7:  -309.13991466023595   -2.37413e-06   9.53594e-07 DIIS
   @DF-RHF iter   8:  -309.13991509740868   -4.37173e-07   4.93435e-07 DIIS
   @DF-RHF iter   9:  -309.13991519176273   -9.43540e-08   1.44252e-07 DIIS
   @DF-RHF iter  10:  -309.13991520271105   -1.09483e-08   3.99759e-08 DIIS
   @DF-RHF iter  11:  -309.13991520345638   -7.45331e-10   1.18148e-08 DIIS
   @DF-RHF iter  12:  -309.13991520351624   -5.98561e-11   3.44338e-09 DIIS
   @DF-RHF iter  13:  -309.13991520352084   -4.60432e-12   8.90910e-10 DIIS
   @DF-RHF iter  14:  -309.13991520352198   -1.13687e-12   2.54357e-10 DIIS
   @DF-RHF iter  15:  -309.13991520352204   -5.68434e-14   7.57527e-11 DIIS
  Energy and wave function converged.


  ==> Post-Iterations <==

    Orbital Energies [Eh]
    ---------------------

    Doubly Occupied:                                                      

       1A    -20.570810     2A    -11.289432     3A    -11.275928  
       4A    -11.224471     5A    -11.213614     6A    -11.209918  
       7A    -11.206477     8A     -1.405500     9A     -1.074228  
      10A     -1.028432    11A     -0.965527    12A     -0.856151  
      13A     -0.840608    14A     -0.756989    15A     -0.689130  
      16A     -0.653437    17A     -0.645145    18A     -0.599161  
      19A     -0.562832    20A     -0.559378    21A     -0.544071  
      22A     -0.532227    23A     -0.509088    24A     -0.501953  
      25A     -0.478389    26A     -0.473839    27A     -0.459272  
      28A     -0.321895  

    Virtual:                                                              

      29A      0.028867    30A      0.034937    31A      0.036080  
      32A      0.039314    33A      0.048576    34A      0.049720  
      35A      0.052597    36A      0.059700    37A      0.070213  
      38A      0.071608    39A      0.074054    40A      0.082140  
      41A      0.101494    42A      0.108203    43A      0.118975  
      44A      0.119658    45A      0.124052    46A      0.127630  
      47A      0.134033    48A      0.134343    49A      0.137586  
      50A      0.140916    51A      0.145141    52A      0.147427  
      53A      0.149008    54A      0.153941    55A      0.157823  
      56A      0.160618    57A      0.170626    58A      0.177128  
      59A      0.182788    60A      0.201422    61A      0.204776  
      62A      0.208137    63A      0.215325    64A      0.222995  
      65A      0.232935    66A      0.244252    67A      0.244628  
      68A      0.251175    69A      0.264160    70A      0.270384  
      71A      0.275523    72A      0.281500    73A      0.289199  
      74A      0.289895    75A      0.296899    76A      0.300271  
      77A      0.309773    78A      0.314524    79A      0.316985  
      80A      0.323086    81A      0.332211    82A      0.336378  
      83A      0.343160    84A      0.346006    85A      0.348898  
      86A      0.356277    87A      0.360615    88A      0.364303  
      89A      0.368485    90A      0.371148    91A      0.379643  
      92A      0.380373    93A      0.385369    94A      0.389092  
      95A      0.391283    96A      0.395142    97A      0.398539  
      98A      0.405642    99A      0.414242   100A      0.421945  
     101A      0.425117   102A      0.429292   103A      0.435579  
     104A      0.436101   105A      0.437830   106A      0.450320  
     107A      0.455580   108A      0.459123   109A      0.461842  
     110A      0.465949   111A      0.473003   112A      0.474325  
     113A      0.478951   114A      0.486025   115A      0.488470  
     116A      0.495007   117A      0.498297   118A      0.505890  
     119A      0.511943   120A      0.513028   121A      0.514493  
     122A      0.519263   123A      0.521989   124A      0.526570  
     125A      0.532435   126A      0.535164   127A      0.545452  
     128A      0.553117   129A      0.563173   130A      0.564420  
     131A      0.572729   132A      0.577968   133A      0.579461  
     134A      0.588726   135A      0.596951   136A      0.606737  
     137A      0.610487   138A      0.622849   139A      0.625295  
     140A      0.631933   141A      0.634299   142A      0.640138  
     143A      0.652744   144A      0.660532   145A      0.668556  
     146A      0.671074   147A      0.683207   148A      0.697464  
     149A      0.701571   150A      0.715796   151A      0.730415  
     152A      0.740613   153A      0.753233   154A      0.771991  
     155A      0.788399   156A      0.795754   157A      0.803381  
     158A      0.811056   159A      0.818455   160A      0.828005  
     161A      0.831027   162A      0.837431   163A      0.845041  
     164A      0.853482   165A      0.856343   166A      0.864571  
     167A      0.867723   168A      0.874109   169A      0.880279  
     170A      0.883621   171A      0.886069   172A      0.890079  
     173A      0.897134   174A      0.897614   175A      0.910684  
     176A      0.917606   177A      0.922812   178A      0.925989  
     179A      0.932066   180A      0.936222   181A      0.940419  
     182A      0.943903   183A      0.950761   184A      0.960098  
     185A      0.961659   186A      0.966598   187A      0.972046  
     188A      0.983295   189A      0.985960   190A      0.996992  
     191A      0.998228   192A      1.007030   193A      1.020580  
     194A      1.026630   195A      1.032840   196A      1.035867  
     197A      1.047543   198A      1.051584   199A      1.057716  
     200A      1.065030   201A      1.067499   202A      1.072921  
     203A      1.085587   204A      1.090451   205A      1.098734  
     206A      1.107642   207A      1.111065   208A      1.117739  
     209A      1.120711   210A      1.126657   211A      1.137860  
     212A      1.141071   213A      1.145182   214A      1.159495  
     215A      1.161911   216A      1.167282   217A      1.174822  
     218A      1.176899   219A      1.181841   220A      1.193491  
     221A      1.198723   222A      1.210981   223A      1.216163  
     224A      1.227282   225A      1.235468   226A      1.240346  
     227A      1.246277   228A      1.256455   229A      1.258322  
     230A      1.264676   231A      1.265566   232A      1.272999  
     233A      1.286855   234A      1.288668   235A      1.300270  
     236A      1.308825   237A      1.319275   238A      1.322983  
     239A      1.332457   240A      1.343621   241A      1.349994  
     242A      1.359989   243A      1.371548   244A      1.384593  
     245A      1.386685   246A      1.409227   247A      1.415770  
     248A      1.424073   249A      1.442852   250A      1.450986  
     251A      1.452191   252A      1.459163   253A      1.475028  
     254A      1.479370   255A      1.492582   256A      1.497603  
     257A      1.505577   258A      1.525035   259A      1.542850  
     260A      1.546316   261A      1.552482   262A      1.560757  
     263A      1.569273   264A      1.583012   265A      1.597501  
     266A      1.599120   267A      1.614743   268A      1.625388  
     269A      1.642710   270A      1.647336   271A      1.650493  
     272A      1.655853   273A      1.660159   274A      1.672470  
     275A      1.679367   276A      1.687739   277A      1.691876  
     278A      1.700192   279A      1.704278   280A      1.706647  
     281A      1.721283   282A      1.723627   283A      1.730222  
     284A      1.736724   285A      1.739351   286A      1.745294  
     287A      1.758521   288A      1.760806   289A      1.767673  
     290A      1.791203   291A      1.796374   292A      1.801126  
     293A      1.809352   294A      1.830480   295A      1.838214  
     296A      1.842100   297A      1.852533   298A      1.855659  
     299A      1.862616   300A      1.878009   301A      1.883915  
     302A      1.887661   303A      1.900831   304A      1.915939  
     305A      1.923317   306A      1.931500   307A      1.946900  
     308A      1.951241   309A      1.954337   310A      1.970244  
     311A      1.981369   312A      1.988796   313A      2.002778  
     314A      2.008628   315A      2.016933   316A      2.020165  
     317A      2.027157   318A      2.044137   319A      2.066005  
     320A      2.077351   321A      2.087216   322A      2.094102  
     323A      2.114415   324A      2.129619   325A      2.142172  
     326A      2.154261   327A      2.158442   328A      2.186461  
     329A      2.192413   330A      2.213286   331A      2.223880  
     332A      2.229438   333A      2.244199   334A      2.249488  
     335A      2.260821   336A      2.264485   337A      2.282428  
     338A      2.291140   339A      2.293656   340A      2.301632  
     341A      2.326789   342A      2.336990   343A      2.340845  
     344A      2.366907   345A      2.376479   346A      2.400599  
     347A      2.415893   348A      2.432376   349A      2.437731  
     350A      2.453843   351A      2.469003   352A      2.479945  
     353A      2.507749   354A      2.510525   355A      2.532707  
     356A      2.570239   357A      2.586241   358A      2.651489  
     359A      2.671947   360A      2.685633   361A      2.729219  
     362A      2.743283   363A      2.753354   364A      2.798760  
     365A      2.816363   366A      2.870461   367A      2.917286  
     368A      2.931771   369A      2.941460   370A      2.972292  
     371A      3.021159   372A      3.078888   373A      3.104079  
     374A      3.136451   375A      3.140361   376A      3.182609  
     377A      3.211441   378A      3.232237   379A      3.238148  
     380A      3.265602   381A      3.308113   382A      3.335200  
     383A      3.367084   384A      3.376485   385A      3.412103  
     386A      3.424959   387A      3.430946   388A      3.453585  
     389A      3.464511   390A      3.469257   391A      3.483539  
     392A      3.495152   393A      3.508173   394A      3.531785  
     395A      3.540940   396A      3.563481   397A      3.578873  
     398A      3.588111   399A      3.591635   400A      3.609121  
     401A      3.616671   402A      3.627565   403A      3.643165  
     404A      3.659197   405A      3.667992   406A      3.679277  
     407A      3.693943   408A      3.700281   409A      3.705713  
     410A      3.723823   411A      3.731836   412A      3.738169  
     413A      3.761464   414A      3.762312   415A      3.770726  
     416A      3.783746   417A      3.787349   418A      3.797866  
     419A      3.824533   420A      3.839211   421A      3.852482  
     422A      3.867659   423A      3.878541   424A      3.881920  
     425A      3.898917   426A      3.907177   427A      3.929710  
     428A      3.936351   429A      3.946172   430A      3.962632  
     431A      3.967975   432A      3.975322   433A      3.979425  
     434A      3.992591   435A      3.996346   436A      4.001404  
     437A      4.019672   438A      4.026056   439A      4.051221  
     440A      4.058276   441A      4.060320   442A      4.072305  
     443A      4.083074   444A      4.112420   445A      4.123617  
     446A      4.138323   447A      4.153387   448A      4.164408  
     449A      4.174757   450A      4.192485   451A      4.211568  
     452A      4.219027   453A      4.228714   454A      4.232128  
     455A      4.246567   456A      4.259287   457A      4.268346  
     458A      4.288712   459A      4.303857   460A      4.313882  
     461A      4.335659   462A      4.359822   463A      4.376634  
     464A      4.385351   465A      4.394297   466A      4.400722  
     467A      4.434067   468A      4.447220   469A      4.451591  
     470A      4.460922   471A      4.495128   472A      4.504085  
     473A      4.505756   474A      4.520290   475A      4.549564  
     476A      4.569668   477A      4.576140   478A      4.586866  
     479A      4.599600   480A      4.639821   481A      4.650309  
     482A      4.657844   483A      4.673918   484A      4.691969  
     485A      4.701983   486A      4.745313   487A      4.764252  
     488A      4.808877   489A      4.814890   490A      4.832207  
     491A      4.838067   492A      4.845153   493A      4.857951  
     494A      4.859713   495A      4.877755   496A      4.888094  
     497A      4.892059   498A      4.923825   499A      4.934016  
     500A      4.952970   501A      4.961040   502A      4.968037  
     503A      4.993574   504A      5.012105   505A      5.029238  
     506A      5.057364   507A      5.072033   508A      5.079467  
     509A      5.096845   510A      5.115267   511A      5.123735  
     512A      5.142927   513A      5.153457   514A      5.167367  
     515A      5.173246   516A      5.187068   517A      5.199624  
     518A      5.214303   519A      5.220510   520A      5.246321  
     521A      5.252859   522A      5.283421   523A      5.296141  
     524A      5.308293   525A      5.320960   526A      5.350269  
     527A      5.369181   528A      5.381024   529A      5.401728  
     530A      5.413514   531A      5.422181   532A      5.449507  
     533A      5.459766   534A      5.481355   535A      5.501666  
     536A      5.521464   537A      5.532244   538A      5.541770  
     539A      5.572737   540A      5.610531   541A      5.628251  
     542A      5.636877   543A      5.653183   544A      5.690280  
     545A      5.716983   546A      5.744350   547A      5.762779  
     548A      5.766994   549A      5.785229   550A      5.819776  
     551A      5.851341   552A      5.901856   553A      5.972984  
     554A      5.989089   555A      6.008728   556A      6.018214  
     557A      6.036396   558A      6.062418   559A      6.114569  
     560A      6.141707   561A      6.159901   562A      6.193754  
     563A      6.211331   564A      6.217414   565A      6.245125  
     566A      6.312958   567A      6.335111   568A      6.390963  
     569A      6.431441   570A      6.555138   571A      6.576721  
     572A      6.731543   573A      6.759369   574A      6.774622  
     575A      6.803475   576A      6.812992   577A      6.845839  
     578A      6.914833   579A      6.996516   580A      7.042438  
     581A      7.083635   582A      7.245018   583A      7.302179  
     584A      7.482557   585A      7.592177   586A      7.735735  
     587A      7.795528   588A      7.902929   589A      8.017522  
     590A      8.401622   591A      8.481710   592A     15.453071  
     593A     17.374710   594A     17.666402   595A     17.935151  
     596A     18.472859   597A     18.685149   598A     19.891538  

    Final Occupation by Irrep:
              A 
    DOCC [    28 ]

  @DF-RHF Final Energy:  -309.13991520352204

   => Energetics <=

    Nuclear Repulsion Energy =            302.4993486479633020
    One-Electron Energy =               -1018.3827252450664673
    Two-Electron Energy =                 406.7434613935811285
    Total Energy =                       -309.1399152035220368

Computation Completed

*** tstop() called on node37.bme.utexas.edu at Mon Nov  2 23:17:50 2020
Module time:
	user time   =     268.72 seconds =       4.48 minutes
	system time =      63.44 seconds =       1.06 minutes
	total time  =         78 seconds =       1.30 minutes
Total time:
	user time   =     268.72 seconds =       4.48 minutes
	system time =      63.44 seconds =       1.06 minutes
	total time  =         78 seconds =       1.30 minutes
   => Loading Basis Set <=

    Name: (AUG-CC-PVTZ AUX)
    Role: RIFIT
    Keyword: DF_BASIS_MP2
    atoms 1    entry O          line   264 file /home/xy3866/psi4conda/share/psi4/basis/aug-cc-pvtz-ri.gbs 
    atoms 2-7  entry C          line   148 file /home/xy3866/psi4conda/share/psi4/basis/aug-cc-pvtz-ri.gbs 
    atoms 8-19 entry H          line    30 file /home/xy3866/psi4conda/share/psi4/basis/aug-cc-pvtz-ri.gbs 


*** tstart() called on node37.bme.utexas.edu
*** at Mon Nov  2 23:17:50 2020


  //>>>>>>>>>>>>>>>>>>>>>>>>>>>>>>>>>>>//
  //               DFMP2               //
  //<<<<<<<<<<<<<<<<<<<<<<<<<<<<<<<<<<<//

	 --------------------------------------------------------
	                          DF-MP2                         
	      2nd-Order Density-Fitted Moller-Plesset Theory     
	              RMP2 Wavefunction,   8 Threads             
	                                                         
	        Rob Parrish, Justin Turney, Andy Simmonett,      
	           Ed Hohenstein, and C. David Sherrill          
	 --------------------------------------------------------

   => Auxiliary Basis Set <=

  Basis Set: (AUG-CC-PVTZ AUX)
    Blend: AUG-CC-PVTZ-RI
    Number of shells: 364
    Number of basis function: 1294
    Number of Cartesian functions: 1612
    Spherical Harmonics?: true
    Max angular momentum: 4

	 --------------------------------------------------------
	                 NBF =   598, NAUX =  1294
	 --------------------------------------------------------
	   CLASS    FOCC     OCC    AOCC    AVIR     VIR    FVIR
	   PAIRS       0      28      28     570     570       0
	 --------------------------------------------------------

  DFHelper Memory: AOs need 3.277 GiB; user supplied 22.352 GiB. Using in-core AOs.


         ------------------------------------------------------------
                                     CPHF                           
                                  Rob Parrish                       
         ------------------------------------------------------------

  ==> Geometry <==

    Molecular point group: c1
    Full point group: C1

    Geometry (in Angstrom), charge = 0, multiplicity = 1:

       Center              X                  Y                   Z               Mass       
    ------------   -----------------  -----------------  -----------------  -----------------
         O           -0.847440954496    -0.290678386151    -0.289580185350    15.994914619570
         C            2.018074045504     0.294481213849    -0.533772085350    12.000000000000
         C           -2.122605954496    -0.213234786151     0.356916914650    12.000000000000
         C            1.392450045504    -0.856530786151     0.187812914650    12.000000000000
         C            2.766188045504     1.222388213849     0.424730914650    12.000000000000
         C            0.073934045504    -1.045272786151     0.318473914650    12.000000000000
         C           -3.022083954496     0.703986213849    -0.450165085350    12.000000000000
         H            2.715181045504    -0.078950786151    -1.290786085350     1.007825032230
         H            1.244442045504     0.853036213849    -1.061956085350     1.007825032230
         H           -2.476462454496    -1.258793686151     0.357455614650     1.007825032230
         H           -2.025706954496     0.145203213849     1.395349914650     1.007825032230
         H            2.040524045504    -1.595117786151     0.652714914650     1.007825032230
         H            3.248753045504     2.039562213849    -0.116844085350     1.007825032230
         H            2.076359045504     1.651379213849     1.154011914650     1.007825032230
         H            3.540351045504     0.677369213849     0.971488914650     1.007825032230
         H           -0.347601954496    -1.881206786151     0.879048914650     1.007825032230
         H           -4.024961954496     0.741566213849    -0.014464085350     1.007825032230
         H           -2.612247954496     1.717931213849    -0.466746085350     1.007825032230
         H           -3.097557954496     0.341350213849    -1.483072085350     1.007825032230

  Nuclear repulsion =  302.499348647963302
  Reference energy  = -309.139915203522037

  ==> Basis Set <==

  Basis Set: AUG-CC-PVTZ
    Blend: AUG-CC-PVTZ
    Number of shells: 206
    Number of basis function: 598
    Number of Cartesian functions: 685
    Spherical Harmonics?: true
    Max angular momentum: 3

  ==> CGRSolver (by Rob Parrish) <==

   Number of roots    =         1
   Preconditioning    =    JACOBI
   Convergence cutoff =     1E-06
   Maximum iterations =       100

  ==> CPHFRHamiltonian (by Rob Parrish) <== 

  ==> MemDFJK: Density-Fitted J/K Matrices <==

    J tasked:                   Yes
    K tasked:                   Yes
    wK tasked:                   No
    OpenMP threads:               8
    Memory [MiB]:             22888
    Algorithm:                 Disk
    Schwarz Cutoff:           1E-12
    Mask sparsity (%):       7.0178
    Fitting Condition:        1E-10

   => Auxiliary Basis Set <=

  Basis Set: (AUG-CC-PVTZ AUX)
    Blend: AUG-CC-PVTZ-JKFIT
    Number of shells: 378
    Number of basis function: 1280
    Number of Cartesian functions: 1577
    Spherical Harmonics?: true
    Max angular momentum: 4

  ==> CPHF Iterations <==

  => Iterations <=

             Iter  Converged  Remaining    Residual
  CGR           1          0          1   8.988E-02
  CGR           2          0          1   2.307E-02
  CGR           3          0          1   8.437E-03
  CGR           4          0          1   2.277E-03
  CGR           5          0          1   6.475E-04
  CGR           6          0          1   2.261E-04
  CGR           7          0          1   6.903E-05
  CGR           8          0          1   2.778E-05
  CGR           9          0          1   8.696E-06
  CGR          10          0          1   2.780E-06
  CGR          11          1          0   7.181E-07

    CGRSolver converged.

	-----------------------------------------------------------
	 ==================> DF-MP2 Energies <==================== 
	-----------------------------------------------------------
	 Reference Energy          =    -309.1399152035220368 [Eh]
	 Singles Energy            =      -0.0000000000000000 [Eh]
	 Same-Spin Energy          =      -0.3137058422000855 [Eh]
	 Opposite-Spin Energy      =      -1.0982453981545843 [Eh]
	 Correlation Energy        =      -1.4119512403546697 [Eh]
	 Total Energy              =    -310.5518664438766905 [Eh]
	-----------------------------------------------------------
	 ================> DF-SCS-MP2 Energies <================== 
	-----------------------------------------------------------
	 SCS Same-Spin Scale       =       0.3333333333333333 [-]
	 SCS Opposite-Spin Scale   =       1.2000000000000000 [-]
	 SCS Same-Spin Energy      =      -0.1045686140666952 [Eh]
	 SCS Opposite-Spin Energy  =      -1.3178944777855011 [Eh]
	 SCS Correlation Energy    =      -1.4224630918521961 [Eh]
	 SCS Total Energy          =    -310.5623782953742307 [Eh]
	-----------------------------------------------------------



Properties will be evaluated at   0.000000,   0.000000,  -0.000000 [a0]

Properties computed using the MP2 density matrix

  Nuclear Dipole Moment: [e a0]
     X:     0.2594      Y:     3.1422      Z:     0.9138

  Electronic Dipole Moment: [e a0]
     X:    -0.7603      Y:    -3.1466      Z:    -0.6451

  Dipole Moment: [e a0]
     X:    -0.5008      Y:    -0.0044      Z:     0.2687     Total:     0.5684

  Dipole Moment: [D]
     X:    -1.2730      Y:    -0.0111      Z:     0.6828     Total:     1.4446


*** tstop() called on node37.bme.utexas.edu at Mon Nov  2 23:20:31 2020
Module time:
	user time   =     757.24 seconds =      12.62 minutes
	system time =     128.95 seconds =       2.15 minutes
	total time  =        161 seconds =       2.68 minutes
Total time:
	user time   =    1027.19 seconds =      17.12 minutes
	system time =     192.49 seconds =       3.21 minutes
	total time  =        239 seconds =       3.98 minutes

    Psi4 stopped on: Monday, 02 November 2020 11:20PM
    Psi4 wall time for execution: 0:03:59.13

*** Psi4 exiting successfully. Buy a developer a beer!
