095_Diethoxymethane Gaussian SP Calculation on node142.bme.utexas.edu   
Freq      RMP2-FC                                                     6-31G(d)            
Number of atoms                            I               19
Info1-9                                    I   N=           9
          30          29        1002           0           0         100
           6           2           1
Charge                                     I                0
Multiplicity                               I                1
Number of electrons                        I               58
Number of alpha electrons                  I               29
Number of beta electrons                   I               29
Number of basis functions                  I              129
Number of independent functions            I              129
Number of point charges in /Mol/           I                0
Number of translation vectors              I                0
Atomic numbers                             I   N=          19
           8           8           6           6           6           6
           6           1           1           1           1           1
           1           1           1           1           1           1
           1
Nuclear charges                            R   N=          19
  8.00000000E+00  8.00000000E+00  6.00000000E+00  6.00000000E+00  6.00000000E+00
  6.00000000E+00  6.00000000E+00  1.00000000E+00  1.00000000E+00  1.00000000E+00
  1.00000000E+00  1.00000000E+00  1.00000000E+00  1.00000000E+00  1.00000000E+00
  1.00000000E+00  1.00000000E+00  1.00000000E+00  1.00000000E+00
Current cartesian coordinates              R   N=          57
  2.00686014E+00  1.07318637E+00 -9.58883010E-01 -2.00686001E+00  1.07318776E+00
  9.58879668E-01  3.22902515E+00 -3.88503900E-01  9.61451859E-01 -3.22901416E+00
 -3.88521805E-01 -9.61445148E-01  1.04910113E-06  2.52747046E+00 -6.05287757E-06
  5.42808522E+00 -1.74108310E+00 -2.67736841E-01 -5.42809590E+00 -1.74107038E+00
  2.67739509E-01  3.88055708E+00  8.74190114E-01  2.48001956E+00  1.88826675E+00
 -1.73001176E+00  1.79329264E+00 -3.88052373E+00  8.74152789E-01 -2.48003889E+00
 -1.88825742E+00 -1.73005129E+00 -1.79325461E+00  6.22553286E-01  3.70679836E+00
  1.58892364E+00 -6.22556656E-01  3.70678921E+00 -1.58894020E+00  6.43692172E+00
 -2.89144978E+00  1.12196924E+00  4.75013485E+00 -2.97438862E+00 -1.77770206E+00
  6.74442578E+00 -3.75496281E-01 -1.08082614E+00 -6.43692364E+00 -2.89145127E+00
 -1.12196118E+00 -4.75016965E+00 -2.97435806E+00  1.77773015E+00 -6.74443754E+00
 -3.75464124E-01  1.08079462E+00
Force Field                                I                0
Int Atom Types                             I   N=          19
           0           0           0           0           0           0
           0           0           0           0           0           0
           0           0           0           0           0           0
           0
MM charges                                 R   N=          19
  0.00000000E+00  0.00000000E+00  0.00000000E+00  0.00000000E+00  0.00000000E+00
  0.00000000E+00  0.00000000E+00  0.00000000E+00  0.00000000E+00  0.00000000E+00
  0.00000000E+00  0.00000000E+00  0.00000000E+00  0.00000000E+00  0.00000000E+00
  0.00000000E+00  0.00000000E+00  0.00000000E+00  0.00000000E+00
Integer atomic weights                     I   N=          19
          16          16          12          12          12          12
          12           1           1           1           1           1
           1           1           1           1           1           1
           1
Real atomic weights                        R   N=          19
  1.59949146E+01  1.59949146E+01  1.20000000E+01  1.20000000E+01  1.20000000E+01
  1.20000000E+01  1.20000000E+01  1.00782504E+00  1.00782504E+00  1.00782504E+00
  1.00782504E+00  1.00782504E+00  1.00782504E+00  1.00782504E+00  1.00782504E+00
  1.00782504E+00  1.00782504E+00  1.00782504E+00  1.00782504E+00
Atom fragment info                         I   N=          19
           0           0           0           0           0           0
           0           0           0           0           0           0
           0           0           0           0           0           0
           0
Atom residue num                           I   N=          19
           0           0           0           0           0           0
           0           0           0           0           0           0
           0           0           0           0           0           0
           0
Nuclear spins                              I   N=          19
           0           0           0           0           0           0
           0           1           1           1           1           1
           1           1           1           1           1           1
           1
Nuclear ZEff                               R   N=          19
 -5.60000000E+00 -5.60000000E+00 -3.60000000E+00 -3.60000000E+00 -3.60000000E+00
 -3.60000000E+00 -3.60000000E+00 -1.00000000E+00 -1.00000000E+00 -1.00000000E+00
 -1.00000000E+00 -1.00000000E+00 -1.00000000E+00 -1.00000000E+00 -1.00000000E+00
 -1.00000000E+00 -1.00000000E+00 -1.00000000E+00 -1.00000000E+00
Nuclear QMom                               R   N=          19
  0.00000000E+00  0.00000000E+00  0.00000000E+00  0.00000000E+00  0.00000000E+00
  0.00000000E+00  0.00000000E+00  0.00000000E+00  0.00000000E+00  0.00000000E+00
  0.00000000E+00  0.00000000E+00  0.00000000E+00  0.00000000E+00  0.00000000E+00
  0.00000000E+00  0.00000000E+00  0.00000000E+00  0.00000000E+00
Nuclear GFac                               R   N=          19
  0.00000000E+00  0.00000000E+00  0.00000000E+00  0.00000000E+00  0.00000000E+00
  0.00000000E+00  0.00000000E+00  2.79284600E+00  2.79284600E+00  2.79284600E+00
  2.79284600E+00  2.79284600E+00  2.79284600E+00  2.79284600E+00  2.79284600E+00
  2.79284600E+00  2.79284600E+00  2.79284600E+00  2.79284600E+00
MicOpt                                     I   N=          19
          -1          -1          -1          -1          -1          -1
          -1          -1          -1          -1          -1          -1
          -1          -1          -1          -1          -1          -1
          -1
Number of contracted shells                I               52
Number of primitive shells                 I              125
Pure/Cartesian d shells                    I                1
Pure/Cartesian f shells                    I                0
Highest angular momentum                   I                2
Largest degree of contraction              I                6
Shell types                                I   N=          52
           0          -1          -1           2           0          -1
          -1           2           0          -1          -1           2
           0          -1          -1           2           0          -1
          -1           2           0          -1          -1           2
           0          -1          -1           2           0           0
           0           0           0           0           0           0
           0           0           0           0           0           0
           0           0           0           0           0           0
           0           0           0           0
Number of primitives per shell             I   N=          52
           6           3           1           1           6           3
           1           1           6           3           1           1
           6           3           1           1           6           3
           1           1           6           3           1           1
           6           3           1           1           3           1
           3           1           3           1           3           1
           3           1           3           1           3           1
           3           1           3           1           3           1
           3           1           3           1
Shell to atom map                          I   N=          52
           1           1           1           1           2           2
           2           2           3           3           3           3
           4           4           4           4           5           5
           5           5           6           6           6           6
           7           7           7           7           8           8
           9           9          10          10          11          11
          12          12          13          13          14          14
          15          15          16          16          17          17
          18          18          19          19
Primitive exponents                        R   N=         125
  5.48467166E+03  8.25234946E+02  1.88046958E+02  5.29645000E+01  1.68975704E+01
  5.79963534E+00  1.55396162E+01  3.59993359E+00  1.01376175E+00  2.70005823E-01
  8.00000000E-01  5.48467166E+03  8.25234946E+02  1.88046958E+02  5.29645000E+01
  1.68975704E+01  5.79963534E+00  1.55396162E+01  3.59993359E+00  1.01376175E+00
  2.70005823E-01  8.00000000E-01  3.04752488E+03  4.57369518E+02  1.03948685E+02
  2.92101553E+01  9.28666296E+00  3.16392696E+00  7.86827235E+00  1.88128854E+00
  5.44249258E-01  1.68714478E-01  8.00000000E-01  3.04752488E+03  4.57369518E+02
  1.03948685E+02  2.92101553E+01  9.28666296E+00  3.16392696E+00  7.86827235E+00
  1.88128854E+00  5.44249258E-01  1.68714478E-01  8.00000000E-01  3.04752488E+03
  4.57369518E+02  1.03948685E+02  2.92101553E+01  9.28666296E+00  3.16392696E+00
  7.86827235E+00  1.88128854E+00  5.44249258E-01  1.68714478E-01  8.00000000E-01
  3.04752488E+03  4.57369518E+02  1.03948685E+02  2.92101553E+01  9.28666296E+00
  3.16392696E+00  7.86827235E+00  1.88128854E+00  5.44249258E-01  1.68714478E-01
  8.00000000E-01  3.04752488E+03  4.57369518E+02  1.03948685E+02  2.92101553E+01
  9.28666296E+00  3.16392696E+00  7.86827235E+00  1.88128854E+00  5.44249258E-01
  1.68714478E-01  8.00000000E-01  1.87311370E+01  2.82539436E+00  6.40121692E-01
  1.61277759E-01  1.87311370E+01  2.82539436E+00  6.40121692E-01  1.61277759E-01
  1.87311370E+01  2.82539436E+00  6.40121692E-01  1.61277759E-01  1.87311370E+01
  2.82539436E+00  6.40121692E-01  1.61277759E-01  1.87311370E+01  2.82539436E+00
  6.40121692E-01  1.61277759E-01  1.87311370E+01  2.82539436E+00  6.40121692E-01
  1.61277759E-01  1.87311370E+01  2.82539436E+00  6.40121692E-01  1.61277759E-01
  1.87311370E+01  2.82539436E+00  6.40121692E-01  1.61277759E-01  1.87311370E+01
  2.82539436E+00  6.40121692E-01  1.61277759E-01  1.87311370E+01  2.82539436E+00
  6.40121692E-01  1.61277759E-01  1.87311370E+01  2.82539436E+00  6.40121692E-01
  1.61277759E-01  1.87311370E+01  2.82539436E+00  6.40121692E-01  1.61277759E-01
Contraction coefficients                   R   N=         125
  1.83107443E-03  1.39501722E-02  6.84450781E-02  2.32714336E-01  4.70192898E-01
  3.58520853E-01 -1.10777550E-01 -1.48026263E-01  1.13076702E+00  1.00000000E+00
  1.00000000E+00  1.83107443E-03  1.39501722E-02  6.84450781E-02  2.32714336E-01
  4.70192898E-01  3.58520853E-01 -1.10777550E-01 -1.48026263E-01  1.13076702E+00
  1.00000000E+00  1.00000000E+00  1.83473713E-03  1.40373228E-02  6.88426223E-02
  2.32184443E-01  4.67941348E-01  3.62311985E-01 -1.19332420E-01 -1.60854152E-01
  1.14345644E+00  1.00000000E+00  1.00000000E+00  1.83473713E-03  1.40373228E-02
  6.88426223E-02  2.32184443E-01  4.67941348E-01  3.62311985E-01 -1.19332420E-01
 -1.60854152E-01  1.14345644E+00  1.00000000E+00  1.00000000E+00  1.83473713E-03
  1.40373228E-02  6.88426223E-02  2.32184443E-01  4.67941348E-01  3.62311985E-01
 -1.19332420E-01 -1.60854152E-01  1.14345644E+00  1.00000000E+00  1.00000000E+00
  1.83473713E-03  1.40373228E-02  6.88426223E-02  2.32184443E-01  4.67941348E-01
  3.62311985E-01 -1.19332420E-01 -1.60854152E-01  1.14345644E+00  1.00000000E+00
  1.00000000E+00  1.83473713E-03  1.40373228E-02  6.88426223E-02  2.32184443E-01
  4.67941348E-01  3.62311985E-01 -1.19332420E-01 -1.60854152E-01  1.14345644E+00
  1.00000000E+00  1.00000000E+00  3.34946043E-02  2.34726953E-01  8.13757326E-01
  1.00000000E+00  3.34946043E-02  2.34726953E-01  8.13757326E-01  1.00000000E+00
  3.34946043E-02  2.34726953E-01  8.13757326E-01  1.00000000E+00  3.34946043E-02
  2.34726953E-01  8.13757326E-01  1.00000000E+00  3.34946043E-02  2.34726953E-01
  8.13757326E-01  1.00000000E+00  3.34946043E-02  2.34726953E-01  8.13757326E-01
  1.00000000E+00  3.34946043E-02  2.34726953E-01  8.13757326E-01  1.00000000E+00
  3.34946043E-02  2.34726953E-01  8.13757326E-01  1.00000000E+00  3.34946043E-02
  2.34726953E-01  8.13757326E-01  1.00000000E+00  3.34946043E-02  2.34726953E-01
  8.13757326E-01  1.00000000E+00  3.34946043E-02  2.34726953E-01  8.13757326E-01
  1.00000000E+00  3.34946043E-02  2.34726953E-01  8.13757326E-01  1.00000000E+00
P(S=P) Contraction coefficients            R   N=         125
  0.00000000E+00  0.00000000E+00  0.00000000E+00  0.00000000E+00  0.00000000E+00
  0.00000000E+00  7.08742682E-02  3.39752839E-01  7.27158577E-01  1.00000000E+00
  0.00000000E+00  0.00000000E+00  0.00000000E+00  0.00000000E+00  0.00000000E+00
  0.00000000E+00  0.00000000E+00  7.08742682E-02  3.39752839E-01  7.27158577E-01
  1.00000000E+00  0.00000000E+00  0.00000000E+00  0.00000000E+00  0.00000000E+00
  0.00000000E+00  0.00000000E+00  0.00000000E+00  6.89990666E-02  3.16423961E-01
  7.44308291E-01  1.00000000E+00  0.00000000E+00  0.00000000E+00  0.00000000E+00
  0.00000000E+00  0.00000000E+00  0.00000000E+00  0.00000000E+00  6.89990666E-02
  3.16423961E-01  7.44308291E-01  1.00000000E+00  0.00000000E+00  0.00000000E+00
  0.00000000E+00  0.00000000E+00  0.00000000E+00  0.00000000E+00  0.00000000E+00
  6.89990666E-02  3.16423961E-01  7.44308291E-01  1.00000000E+00  0.00000000E+00
  0.00000000E+00  0.00000000E+00  0.00000000E+00  0.00000000E+00  0.00000000E+00
  0.00000000E+00  6.89990666E-02  3.16423961E-01  7.44308291E-01  1.00000000E+00
  0.00000000E+00  0.00000000E+00  0.00000000E+00  0.00000000E+00  0.00000000E+00
  0.00000000E+00  0.00000000E+00  6.89990666E-02  3.16423961E-01  7.44308291E-01
  1.00000000E+00  0.00000000E+00  0.00000000E+00  0.00000000E+00  0.00000000E+00
  0.00000000E+00  0.00000000E+00  0.00000000E+00  0.00000000E+00  0.00000000E+00
  0.00000000E+00  0.00000000E+00  0.00000000E+00  0.00000000E+00  0.00000000E+00
  0.00000000E+00  0.00000000E+00  0.00000000E+00  0.00000000E+00  0.00000000E+00
  0.00000000E+00  0.00000000E+00  0.00000000E+00  0.00000000E+00  0.00000000E+00
  0.00000000E+00  0.00000000E+00  0.00000000E+00  0.00000000E+00  0.00000000E+00
  0.00000000E+00  0.00000000E+00  0.00000000E+00  0.00000000E+00  0.00000000E+00
  0.00000000E+00  0.00000000E+00  0.00000000E+00  0.00000000E+00  0.00000000E+00
  0.00000000E+00  0.00000000E+00  0.00000000E+00  0.00000000E+00  0.00000000E+00
  0.00000000E+00  0.00000000E+00  0.00000000E+00  0.00000000E+00  0.00000000E+00
Coordinates of each shell                  R   N=         156
  2.00686014E+00  1.07318637E+00 -9.58883010E-01  2.00686014E+00  1.07318637E+00
 -9.58883010E-01  2.00686014E+00  1.07318637E+00 -9.58883010E-01  2.00686014E+00
  1.07318637E+00 -9.58883010E-01 -2.00686001E+00  1.07318776E+00  9.58879668E-01
 -2.00686001E+00  1.07318776E+00  9.58879668E-01 -2.00686001E+00  1.07318776E+00
  9.58879668E-01 -2.00686001E+00  1.07318776E+00  9.58879668E-01  3.22902515E+00
 -3.88503900E-01  9.61451859E-01  3.22902515E+00 -3.88503900E-01  9.61451859E-01
  3.22902515E+00 -3.88503900E-01  9.61451859E-01  3.22902515E+00 -3.88503900E-01
  9.61451859E-01 -3.22901416E+00 -3.88521805E-01 -9.61445148E-01 -3.22901416E+00
 -3.88521805E-01 -9.61445148E-01 -3.22901416E+00 -3.88521805E-01 -9.61445148E-01
 -3.22901416E+00 -3.88521805E-01 -9.61445148E-01  1.04910113E-06  2.52747046E+00
 -6.05287757E-06  1.04910113E-06  2.52747046E+00 -6.05287757E-06  1.04910113E-06
  2.52747046E+00 -6.05287757E-06  1.04910113E-06  2.52747046E+00 -6.05287757E-06
  5.42808522E+00 -1.74108310E+00 -2.67736841E-01  5.42808522E+00 -1.74108310E+00
 -2.67736841E-01  5.42808522E+00 -1.74108310E+00 -2.67736841E-01  5.42808522E+00
 -1.74108310E+00 -2.67736841E-01 -5.42809590E+00 -1.74107038E+00  2.67739509E-01
 -5.42809590E+00 -1.74107038E+00  2.67739509E-01 -5.42809590E+00 -1.74107038E+00
  2.67739509E-01 -5.42809590E+00 -1.74107038E+00  2.67739509E-01  3.88055708E+00
  8.74190114E-01  2.48001956E+00  3.88055708E+00  8.74190114E-01  2.48001956E+00
  1.88826675E+00 -1.73001176E+00  1.79329264E+00  1.88826675E+00 -1.73001176E+00
  1.79329264E+00 -3.88052373E+00  8.74152789E-01 -2.48003889E+00 -3.88052373E+00
  8.74152789E-01 -2.48003889E+00 -1.88825742E+00 -1.73005129E+00 -1.79325461E+00
 -1.88825742E+00 -1.73005129E+00 -1.79325461E+00  6.22553286E-01  3.70679836E+00
  1.58892364E+00  6.22553286E-01  3.70679836E+00  1.58892364E+00 -6.22556656E-01
  3.70678921E+00 -1.58894020E+00 -6.22556656E-01  3.70678921E+00 -1.58894020E+00
  6.43692172E+00 -2.89144978E+00  1.12196924E+00  6.43692172E+00 -2.89144978E+00
  1.12196924E+00  4.75013485E+00 -2.97438862E+00 -1.77770206E+00  4.75013485E+00
 -2.97438862E+00 -1.77770206E+00  6.74442578E+00 -3.75496281E-01 -1.08082614E+00
  6.74442578E+00 -3.75496281E-01 -1.08082614E+00 -6.43692364E+00 -2.89145127E+00
 -1.12196118E+00 -6.43692364E+00 -2.89145127E+00 -1.12196118E+00 -4.75016965E+00
 -2.97435806E+00  1.77773015E+00 -4.75016965E+00 -2.97435806E+00  1.77773015E+00
 -6.74443754E+00 -3.75464124E-01  1.08079462E+00 -6.74443754E+00 -3.75464124E-01
  1.08079462E+00
Constraint Structure                       R   N=          57
  2.00686014E+00  1.07318637E+00 -9.58883010E-01 -2.00686001E+00  1.07318776E+00
  9.58879668E-01  3.22902515E+00 -3.88503900E-01  9.61451859E-01 -3.22901416E+00
 -3.88521805E-01 -9.61445148E-01  1.04910113E-06  2.52747046E+00 -6.05287757E-06
  5.42808522E+00 -1.74108310E+00 -2.67736841E-01 -5.42809590E+00 -1.74107038E+00
  2.67739509E-01  3.88055708E+00  8.74190114E-01  2.48001956E+00  1.88826675E+00
 -1.73001176E+00  1.79329264E+00 -3.88052373E+00  8.74152789E-01 -2.48003889E+00
 -1.88825742E+00 -1.73005129E+00 -1.79325461E+00  6.22553286E-01  3.70679836E+00
  1.58892364E+00 -6.22556656E-01  3.70678921E+00 -1.58894020E+00  6.43692172E+00
 -2.89144978E+00  1.12196924E+00  4.75013485E+00 -2.97438862E+00 -1.77770206E+00
  6.74442578E+00 -3.75496281E-01 -1.08082614E+00 -6.43692364E+00 -2.89145127E+00
 -1.12196118E+00 -4.75016965E+00 -2.97435806E+00  1.77773015E+00 -6.74443754E+00
 -3.75464124E-01  1.08079462E+00
Num ILSW                                   I              100
ILSW                                       I   N=         100
           0           1           0           0           2           0
           0           0           0           0           0          -1
           0           0           0           0           0           0
           0           0           0           0           1           0
           1           0           0           0           0           0
           0           0      100000           0          -1           0
           0           0           0           0           0           0
           0           0           0           1           1           0
           0           0           1           0           0           0
           0           0           4          40           0           0
           0           0           0           0           0           0
           0           0           0           0           0           0
           0           0           0           0           0           0
           0           0           0           0           0           0
           0           0           0           0           0           0
           0           0           0           0           0           0
           0           0           0           0
Num RLSW                                   I               40
RLSW                                       R   N=          40
  1.00000000E+00  1.00000000E+00  1.00000000E+00  1.00000000E+00  1.00000000E+00
  0.00000000E+00  0.00000000E+00  1.00000000E+00  0.00000000E+00  0.00000000E+00
  0.00000000E+00  0.00000000E+00  1.00000000E+00  0.00000000E+00  0.00000000E+00
  0.00000000E+00  0.00000000E+00  1.00000000E+00  0.00000000E+00  0.00000000E+00
  0.00000000E+00  0.00000000E+00  1.00000000E+00  0.00000000E+00  0.00000000E+00
  0.00000000E+00  0.00000000E+00  1.00000000E+00  0.00000000E+00  0.00000000E+00
  0.00000000E+00  0.00000000E+00  0.00000000E+00  0.00000000E+00  0.00000000E+00
  0.00000000E+00  0.00000000E+00  0.00000000E+00  1.00000000E+00  1.00000000E+00
MxBond                                     I                4
NBond                                      I   N=          19
           2           2           4           4           4           4
           4           1           1           1           1           1
           1           1           1           1           1           1
           1
IBond                                      I   N=          76
           3           5           0           0           4           5
           0           0           1           6           8           9
           2           7          10          11           1           2
          12          13           3          14          15          16
           4          17          18          19           3           0
           0           0           3           0           0           0
           4           0           0           0           4           0
           0           0           5           0           0           0
           5           0           0           0           6           0
           0           0           6           0           0           0
           6           0           0           0           7           0
           0           0           7           0           0           0
           7           0           0           0
RBond                                      R   N=          76
  1.00000000E+00  1.00000000E+00  0.00000000E+00  0.00000000E+00  1.00000000E+00
  1.00000000E+00  0.00000000E+00  0.00000000E+00  1.00000000E+00  1.00000000E+00
  1.00000000E+00  1.00000000E+00  1.00000000E+00  1.00000000E+00  1.00000000E+00
  1.00000000E+00  1.00000000E+00  1.00000000E+00  1.00000000E+00  1.00000000E+00
  1.00000000E+00  1.00000000E+00  1.00000000E+00  1.00000000E+00  1.00000000E+00
  1.00000000E+00  1.00000000E+00  1.00000000E+00  1.00000000E+00  0.00000000E+00
  0.00000000E+00  0.00000000E+00  1.00000000E+00  0.00000000E+00  0.00000000E+00
  0.00000000E+00  1.00000000E+00  0.00000000E+00  0.00000000E+00  0.00000000E+00
  1.00000000E+00  0.00000000E+00  0.00000000E+00  0.00000000E+00  1.00000000E+00
  0.00000000E+00  0.00000000E+00  0.00000000E+00  1.00000000E+00  0.00000000E+00
  0.00000000E+00  0.00000000E+00  1.00000000E+00  0.00000000E+00  0.00000000E+00
  0.00000000E+00  1.00000000E+00  0.00000000E+00  0.00000000E+00  0.00000000E+00
  1.00000000E+00  0.00000000E+00  0.00000000E+00  0.00000000E+00  1.00000000E+00
  0.00000000E+00  0.00000000E+00  0.00000000E+00  1.00000000E+00  0.00000000E+00
  0.00000000E+00  0.00000000E+00  1.00000000E+00  0.00000000E+00  0.00000000E+00
  0.00000000E+00
Virial Ratio                               R      2.002153053126899E+00
SCF Energy                                 R     -3.460311127669406E+02
MP2 Energy                                 R     -3.470407811013623E+02
Total Energy                               R     -3.470407811013623E+02
Post-SCF wavefunction norm                 R      1.618583699167538E+00
RMS Force                                  R      1.831138791483615E-07
RMS Density                                R      1.149489241574908E-09
External E-field                           R   N=          35
  0.00000000E+00  0.00000000E+00  0.00000000E+00  0.00000000E+00  0.00000000E+00
  0.00000000E+00  0.00000000E+00  0.00000000E+00  0.00000000E+00  0.00000000E+00
  0.00000000E+00  0.00000000E+00  0.00000000E+00  0.00000000E+00  0.00000000E+00
  0.00000000E+00  0.00000000E+00  0.00000000E+00  0.00000000E+00  0.00000000E+00
  0.00000000E+00  0.00000000E+00  0.00000000E+00  0.00000000E+00  0.00000000E+00
  0.00000000E+00  0.00000000E+00  0.00000000E+00  0.00000000E+00  0.00000000E+00
  0.00000000E+00  0.00000000E+00  0.00000000E+00  0.00000000E+00  0.00000000E+00
IOpCl                                      I                0
IROHF                                      I                0
Alpha Orbital Energies                     R   N=         129
 -2.05631646E+01 -2.05631462E+01 -1.13243555E+01 -1.12734321E+01 -1.12734316E+01
 -1.12148473E+01 -1.12148471E+01 -1.40731432E+00 -1.33832060E+00 -1.03283979E+00
 -1.01193867E+00 -8.95185436E-01 -8.46519127E-01 -8.10659375E-01 -6.89203079E-01
 -6.81599689E-01 -6.70767160E-01 -6.19782002E-01 -6.16647408E-01 -5.75385374E-01
 -5.37535960E-01 -5.35947648E-01 -5.24573166E-01 -5.14022078E-01 -5.00444546E-01
 -4.93927215E-01 -4.58417603E-01 -4.32643097E-01 -4.30049644E-01  2.31199907E-01
  2.58141984E-01  2.65014799E-01  2.83977623E-01  2.98374578E-01  3.11449131E-01
  3.16847099E-01  3.17500270E-01  3.32956192E-01  3.34111040E-01  3.43146845E-01
  3.49419231E-01  3.79317634E-01  3.80022417E-01  4.12708306E-01  4.18703776E-01
  4.62068706E-01  4.72313437E-01  7.06146398E-01  7.24604065E-01  7.50204671E-01
  7.51918229E-01  7.59297644E-01  7.81503359E-01  7.91264508E-01  8.13852014E-01
  8.41634717E-01  8.86558862E-01  8.94053995E-01  9.37903378E-01  9.54316440E-01
  9.86127207E-01  1.06149222E+00  1.07446478E+00  1.09466210E+00  1.12141797E+00
  1.14630384E+00  1.16427733E+00  1.16619413E+00  1.17014992E+00  1.18479617E+00
  1.19269429E+00  1.19765732E+00  1.21596404E+00  1.22825041E+00  1.24563351E+00
  1.26627951E+00  1.27877430E+00  1.36554257E+00  1.39341733E+00  1.44945157E+00
  1.50458302E+00  1.59674104E+00  1.60622327E+00  1.67529268E+00  1.68594197E+00
  1.70492936E+00  1.70596303E+00  1.73788306E+00  1.89200451E+00  1.91249535E+00
  1.98708406E+00  1.99516947E+00  2.06227762E+00  2.12447557E+00  2.20526222E+00
  2.24664040E+00  2.25948265E+00  2.28084361E+00  2.29359375E+00  2.33249008E+00
  2.35349861E+00  2.39087441E+00  2.42924574E+00  2.43849911E+00  2.49036452E+00
  2.53737485E+00  2.54497117E+00  2.60973511E+00  2.62291388E+00  2.63046659E+00
  2.69097256E+00  2.72402081E+00  2.77387066E+00  2.80107751E+00  2.84634293E+00
  2.93862200E+00  2.99904066E+00  3.02743734E+00  3.08153270E+00  3.24080206E+00
  3.32324421E+00  3.36237193E+00  4.31957148E+00  4.39835621E+00  4.61373738E+00
  4.61776073E+00  4.75486792E+00  4.83166469E+00  4.87558451E+00
Alpha MO coefficients                      R   N=       16641
  7.10042580E-01  1.51512430E-02 -2.78605713E-04  1.11685190E-05  8.66360633E-04
  2.67555721E-03  4.15893914E-05  7.54271044E-05 -5.85144250E-04 -2.84567877E-03
 -2.84447088E-03 -2.90705700E-03  1.43872818E-04 -1.64488391E-05  5.46602606E-05
 -6.96558527E-01 -1.48629995E-02 -2.73676306E-04 -1.04590138E-05  8.50671241E-04
 -2.62815769E-03  3.57500040E-05 -7.76564971E-05 -5.76259155E-04  2.79005961E-03
  2.79037767E-03  2.85195893E-03  1.40909148E-04  1.68598577E-05  5.38966650E-05
 -1.55858582E-05  1.24146699E-04 -1.21620332E-04  1.44039034E-04 -2.02515749E-04
  2.85095116E-04 -6.49551464E-06  6.67330388E-05 -3.27510755E-05  3.80265615E-06
  2.97322100E-06  2.28281761E-05 -4.63583924E-05  4.17156391E-05 -5.30093199E-05
  1.53174030E-05 -1.21435598E-04 -1.19352603E-04 -1.41230634E-04 -1.99298107E-04
 -2.81249795E-04 -9.00327174E-06 -6.93695989E-05 -3.26147634E-05 -3.89883055E-06
 -2.95987925E-06 -2.26387353E-05 -4.55699053E-05 -4.13697249E-05 -5.23991604E-05
 -3.04118427E-07  3.00974676E-06  4.01314347E-04 -3.22458725E-06 -1.94212492E-04
  5.72139899E-06 -1.54838037E-04 -1.28492055E-06  4.54196732E-04  3.44194205E-07
 -2.96249928E-08 -8.27456754E-07 -4.94945463E-05 -5.68066415E-07  1.94744890E-05
  7.04430914E-06  6.63242010E-05 -5.40700814E-06  3.26231968E-06 -1.63852031E-05
 -1.28989567E-04  1.63039872E-04 -1.40121437E-04  1.02997258E-04 -2.76199162E-05
 -1.97581115E-05  1.27030340E-05  2.25115511E-05 -3.32419189E-06 -4.75532779E-06
 -6.81784832E-06 -6.45752845E-05 -5.40707921E-06 -3.08738210E-06 -1.60038725E-05
  1.23180467E-04  1.59083183E-04  1.36524259E-04  1.01540739E-04  2.70818991E-05
  1.95332554E-05 -1.23922369E-05  2.19808606E-05  3.33578540E-06 -4.70367980E-06
 -3.21211130E-05 -7.97513424E-05 -5.24108879E-05  4.52179934E-05  3.17680326E-05
  7.96984010E-05  5.23342594E-05 -4.72802190E-05 -4.72219691E-05 -9.67690742E-05
  4.62346492E-05  9.41499188E-05 -9.32724825E-06 -1.03985206E-04  3.71534706E-05
 -2.12986906E-06  3.40879228E-05 -1.41293355E-05  9.29708537E-06  1.01778625E-04
 -3.64000154E-05  2.25289955E-06 -3.32768179E-05  1.43813851E-05  6.96559226E-01
  1.48903135E-02 -2.54501000E-04  3.64312806E-05  8.10049998E-04  2.44671060E-03
  3.04306908E-04 -1.16734957E-04 -4.57833746E-04 -2.87390833E-03 -2.79444449E-03
 -2.84612392E-03  1.53242175E-04  2.17118534E-05  3.93379855E-05  7.10043265E-01
  1.51780366E-02  2.59795966E-04  3.66295462E-05 -8.26509063E-04  2.49755385E-03
 -3.05048901E-04 -1.15263472E-04  4.68966561E-04 -2.92793359E-03 -2.84846253E-03
 -2.90133009E-03 -1.55972614E-04  2.13945726E-05 -4.03789771E-05 -1.38576143E-05
  1.40281052E-04 -1.17060360E-04  1.45214321E-04 -1.65881692E-04  1.97931659E-04
  1.30820852E-04 -1.37989450E-04 -6.56247653E-06 -5.10225103E-06  6.79517947E-07
  9.58015546E-06 -4.06636937E-05  1.75914229E-05 -3.13183591E-05 -1.41538080E-05
  1.42636819E-04  1.19370023E-04  1.47950524E-04  1.69732453E-04  2.03360264E-04
 -1.30677727E-04 -1.36682239E-04  7.19015563E-06 -5.02877684E-06  7.36162182E-07
  1.00148132E-05  4.15445599E-05  1.83867316E-05  3.23287169E-05 -3.17276565E-05
  3.13708215E-04 -3.84677187E-06 -3.36351332E-04  1.86243794E-06  5.96685904E-04