opt=Tight                                                               
Freq      RMP2-FC                                                     6-31G(d)            
Number of atoms                            I               10
Info1-9                                    I   N=           9
          19          19        1002           0           0         100
           6           2           1
Charge                                     I                1
Multiplicity                               I                1
Number of electrons                        I               32
Number of alpha electrons                  I               16
Number of beta electrons                   I               16
Number of basis functions                  I               72
Number of independent functions            I               72
Number of point charges in /Mol/           I                0
Number of translation vectors              I                0
Atomic numbers                             I   N=          10
           6           7           7           7           1           1
           1           1           1           1
Nuclear charges                            R   N=          10
  6.00000000E+00  7.00000000E+00  7.00000000E+00  7.00000000E+00  1.00000000E+00
  1.00000000E+00  1.00000000E+00  1.00000000E+00  1.00000000E+00  1.00000000E+00
Current cartesian coordinates              R   N=          30
 -3.62313167E-06 -2.95752098E-07  0.00000000E+00 -2.41821684E+00 -7.17408011E-01
 -2.27462828E-05  1.83041301E+00 -1.73551991E+00  3.77249535E-05  5.87813890E-01
  2.45293707E+00 -1.70771044E-05  2.35352026E+00  3.05361592E+00  4.25263899E-01
 -7.13879921E-01  3.78869463E+00 -4.25150655E-01 -3.82128723E+00  5.11390070E-01
  4.25237443E-01 -2.92416312E+00 -2.51259457E+00 -4.25133647E-01  1.46775011E+00
 -3.56504571E+00  4.25125949E-01  3.63801123E+00 -1.27612264E+00 -4.25328289E-01
Force Field                                I                0
Int Atom Types                             I   N=          10
           0           0           0           0           0           0
           0           0           0           0
MM charges                                 R   N=          10
  0.00000000E+00  0.00000000E+00  0.00000000E+00  0.00000000E+00  0.00000000E+00
  0.00000000E+00  0.00000000E+00  0.00000000E+00  0.00000000E+00  0.00000000E+00
Integer atomic weights                     I   N=          10
          12          14          14          14           1           1
           1           1           1           1
Real atomic weights                        R   N=          10
  1.20000000E+01  1.40030740E+01  1.40030740E+01  1.40030740E+01  1.00782504E+00
  1.00782504E+00  1.00782504E+00  1.00782504E+00  1.00782504E+00  1.00782504E+00
Atom fragment info                         I   N=          10
           0           0           0           0           0           0
           0           0           0           0
Atom residue num                           I   N=          10
           0           0           0           0           0           0
           0           0           0           0
Nuclear spins                              I   N=          10
           0           2           2           2           1           1
           1           1           1           1
Nuclear ZEff                               R   N=          10
 -3.60000000E+00 -4.55000000E+00 -4.55000000E+00 -4.55000000E+00 -1.00000000E+00
 -1.00000000E+00 -1.00000000E+00 -1.00000000E+00 -1.00000000E+00 -1.00000000E+00
Nuclear QMom                               R   N=          10
  0.00000000E+00  2.04400000E+00  2.04400000E+00  2.04400000E+00  0.00000000E+00
  0.00000000E+00  0.00000000E+00  0.00000000E+00  0.00000000E+00  0.00000000E+00
Nuclear GFac                               R   N=          10
  0.00000000E+00  4.03761000E-01  4.03761000E-01  4.03761000E-01  2.79284600E+00
  2.79284600E+00  2.79284600E+00  2.79284600E+00  2.79284600E+00  2.79284600E+00
MicOpt                                     I   N=          10
          -1          -1          -1          -1          -1          -1
          -1          -1          -1          -1
Number of contracted shells                I               28
Number of primitive shells                 I               68
Pure/Cartesian d shells                    I                1
Pure/Cartesian f shells                    I                0
Highest angular momentum                   I                2
Largest degree of contraction              I                6
Shell types                                I   N=          28
           0          -1          -1           2           0          -1
          -1           2           0          -1          -1           2
           0          -1          -1           2           0           0
           0           0           0           0           0           0
           0           0           0           0
Number of primitives per shell             I   N=          28
           6           3           1           1           6           3
           1           1           6           3           1           1
           6           3           1           1           3           1
           3           1           3           1           3           1
           3           1           3           1
Shell to atom map                          I   N=          28
           1           1           1           1           2           2
           2           2           3           3           3           3
           4           4           4           4           5           5
           6           6           7           7           8           8
           9           9          10          10
Primitive exponents                        R   N=          68
  3.04752488E+03  4.57369518E+02  1.03948685E+02  2.92101553E+01  9.28666296E+00
  3.16392696E+00  7.86827235E+00  1.88128854E+00  5.44249258E-01  1.68714478E-01
  8.00000000E-01  4.17351146E+03  6.27457911E+02  1.42902093E+02  4.02343293E+01
  1.28202129E+01  4.39043701E+00  1.16263619E+01  2.71627981E+00  7.72218397E-01
  2.12031498E-01  8.00000000E-01  4.17351146E+03  6.27457911E+02  1.42902093E+02
  4.02343293E+01  1.28202129E+01  4.39043701E+00  1.16263619E+01  2.71627981E+00
  7.72218397E-01  2.12031498E-01  8.00000000E-01  4.17351146E+03  6.27457911E+02
  1.42902093E+02  4.02343293E+01  1.28202129E+01  4.39043701E+00  1.16263619E+01
  2.71627981E+00  7.72218397E-01  2.12031498E-01  8.00000000E-01  1.87311370E+01
  2.82539436E+00  6.40121692E-01  1.61277759E-01  1.87311370E+01  2.82539436E+00
  6.40121692E-01  1.61277759E-01  1.87311370E+01  2.82539436E+00  6.40121692E-01
  1.61277759E-01  1.87311370E+01  2.82539436E+00  6.40121692E-01  1.61277759E-01
  1.87311370E+01  2.82539436E+00  6.40121692E-01  1.61277759E-01  1.87311370E+01
  2.82539436E+00  6.40121692E-01  1.61277759E-01
Contraction coefficients                   R   N=          68
  1.83473713E-03  1.40373228E-02  6.88426223E-02  2.32184443E-01  4.67941348E-01
  3.62311985E-01 -1.19332420E-01 -1.60854152E-01  1.14345644E+00  1.00000000E+00
  1.00000000E+00  1.83477216E-03  1.39946270E-02  6.85865518E-02  2.32240873E-01
  4.69069948E-01  3.60455199E-01 -1.14961182E-01 -1.69117479E-01  1.14585195E+00
  1.00000000E+00  1.00000000E+00  1.83477216E-03  1.39946270E-02  6.85865518E-02
  2.32240873E-01  4.69069948E-01  3.60455199E-01 -1.14961182E-01 -1.69117479E-01
  1.14585195E+00  1.00000000E+00  1.00000000E+00  1.83477216E-03  1.39946270E-02
  6.85865518E-02  2.32240873E-01  4.69069948E-01  3.60455199E-01 -1.14961182E-01
 -1.69117479E-01  1.14585195E+00  1.00000000E+00  1.00000000E+00  3.34946043E-02
  2.34726953E-01  8.13757326E-01  1.00000000E+00  3.34946043E-02  2.34726953E-01
  8.13757326E-01  1.00000000E+00  3.34946043E-02  2.34726953E-01  8.13757326E-01
  1.00000000E+00  3.34946043E-02  2.34726953E-01  8.13757326E-01  1.00000000E+00
  3.34946043E-02  2.34726953E-01  8.13757326E-01  1.00000000E+00  3.34946043E-02
  2.34726953E-01  8.13757326E-01  1.00000000E+00
P(S=P) Contraction coefficients            R   N=          68
  0.00000000E+00  0.00000000E+00  0.00000000E+00  0.00000000E+00  0.00000000E+00
  0.00000000E+00  6.89990666E-02  3.16423961E-01  7.44308291E-01  1.00000000E+00
  0.00000000E+00  0.00000000E+00  0.00000000E+00  0.00000000E+00  0.00000000E+00
  0.00000000E+00  0.00000000E+00  6.75797439E-02  3.23907296E-01  7.40895140E-01
  1.00000000E+00  0.00000000E+00  0.00000000E+00  0.00000000E+00  0.00000000E+00
  0.00000000E+00  0.00000000E+00  0.00000000E+00  6.75797439E-02  3.23907296E-01
  7.40895140E-01  1.00000000E+00  0.00000000E+00  0.00000000E+00  0.00000000E+00
  0.00000000E+00  0.00000000E+00  0.00000000E+00  0.00000000E+00  6.75797439E-02
  3.23907296E-01  7.40895140E-01  1.00000000E+00  0.00000000E+00  0.00000000E+00
  0.00000000E+00  0.00000000E+00  0.00000000E+00  0.00000000E+00  0.00000000E+00
  0.00000000E+00  0.00000000E+00  0.00000000E+00  0.00000000E+00  0.00000000E+00
  0.00000000E+00  0.00000000E+00  0.00000000E+00  0.00000000E+00  0.00000000E+00
  0.00000000E+00  0.00000000E+00  0.00000000E+00  0.00000000E+00  0.00000000E+00
  0.00000000E+00  0.00000000E+00  0.00000000E+00
Coordinates of each shell                  R   N=          84
 -3.62313167E-06 -2.95752098E-07  0.00000000E+00 -3.62313167E-06 -2.95752098E-07
  0.00000000E+00 -3.62313167E-06 -2.95752098E-07  0.00000000E+00 -3.62313167E-06
 -2.95752098E-07  0.00000000E+00 -2.41821684E+00 -7.17408011E-01 -2.27462828E-05
 -2.41821684E+00 -7.17408011E-01 -2.27462828E-05 -2.41821684E+00 -7.17408011E-01
 -2.27462828E-05 -2.41821684E+00 -7.17408011E-01 -2.27462828E-05  1.83041301E+00
 -1.73551991E+00  3.77249535E-05  1.83041301E+00 -1.73551991E+00  3.77249535E-05
  1.83041301E+00 -1.73551991E+00  3.77249535E-05  1.83041301E+00 -1.73551991E+00
  3.77249535E-05  5.87813890E-01  2.45293707E+00 -1.70771044E-05  5.87813890E-01
  2.45293707E+00 -1.70771044E-05  5.87813890E-01  2.45293707E+00 -1.70771044E-05
  5.87813890E-01  2.45293707E+00 -1.70771044E-05  2.35352026E+00  3.05361592E+00
  4.25263899E-01  2.35352026E+00  3.05361592E+00  4.25263899E-01 -7.13879921E-01
  3.78869463E+00 -4.25150655E-01 -7.13879921E-01  3.78869463E+00 -4.25150655E-01
 -3.82128723E+00  5.11390070E-01  4.25237443E-01 -3.82128723E+00  5.11390070E-01
  4.25237443E-01 -2.92416312E+00 -2.51259457E+00 -4.25133647E-01 -2.92416312E+00
 -2.51259457E+00 -4.25133647E-01  1.46775011E+00 -3.56504571E+00  4.25125949E-01
  1.46775011E+00 -3.56504571E+00  4.25125949E-01  3.63801123E+00 -1.27612264E+00
 -4.25328289E-01  3.63801123E+00 -1.27612264E+00 -4.25328289E-01
Constraint Structure                       R   N=          30
 -3.62313167E-06 -2.95752098E-07  0.00000000E+00 -2.41821684E+00 -7.17408011E-01
 -2.27462828E-05  1.83041301E+00 -1.73551991E+00  3.77249535E-05  5.87813890E-01
  2.45293707E+00 -1.70771044E-05  2.35352026E+00  3.05361592E+00  4.25263899E-01
 -7.13879921E-01  3.78869463E+00 -4.25150655E-01 -3.82128723E+00  5.11390070E-01
  4.25237443E-01 -2.92416312E+00 -2.51259457E+00 -4.25133647E-01  1.46775011E+00
 -3.56504571E+00  4.25125949E-01  3.63801123E+00 -1.27612264E+00 -4.25328289E-01
Num ILSW                                   I              100
ILSW                                       I   N=         100
           0           1           0           1           2           0
           0           0           0           0           0          -1
           0           0           0           0           0           0
           0           0           0           0           1           0
           1           0           0           0           0           0
           0           0      100000           0          -1           0
           0           0           0           0           0           0
           0           0           0           1           1           0
           0           0           1           0           0           0
           0           0           4          40           0           0
           0           0           0           0           0           0
           0           0           0           0           0           0
           0           0           0           0           0           0
           0           0           0           0           0           0
           0           0           0           0           0           0
           0           0           0           0           0           0
           0           0           0           0
Num RLSW                                   I               40
RLSW                                       R   N=          40
  1.00000000E+00  1.00000000E+00  1.00000000E+00  1.00000000E+00  1.00000000E+00
  0.00000000E+00  0.00000000E+00  1.00000000E+00  0.00000000E+00  0.00000000E+00
  0.00000000E+00  0.00000000E+00  1.00000000E+00  0.00000000E+00  0.00000000E+00
  0.00000000E+00  0.00000000E+00  1.00000000E+00  0.00000000E+00  0.00000000E+00
  0.00000000E+00  0.00000000E+00  1.00000000E+00  0.00000000E+00  0.00000000E+00
  0.00000000E+00  0.00000000E+00  1.00000000E+00  0.00000000E+00  0.00000000E+00
  0.00000000E+00  0.00000000E+00  0.00000000E+00  0.00000000E+00  0.00000000E+00
  0.00000000E+00  0.00000000E+00  0.00000000E+00  1.00000000E+00  1.00000000E+00
MxBond                                     I                3
NBond                                      I   N=          10
           3           3           3           3           1           1
           1           1           1           1
IBond                                      I   N=          30
           2           3           4           1           7           8
           1           9          10           1           5           6
           4           0           0           4           0           0
           2           0           0           2           0           0
           3           0           0           3           0           0
RBond                                      R   N=          30
  1.50000000E+00  1.50000000E+00  1.50000000E+00  1.50000000E+00  1.00000000E+00
  1.00000000E+00  1.50000000E+00  1.00000000E+00  1.00000000E+00  1.50000000E+00
  1.00000000E+00  1.00000000E+00  1.00000000E+00  0.00000000E+00  0.00000000E+00
  1.00000000E+00  0.00000000E+00  0.00000000E+00  1.00000000E+00  0.00000000E+00
  0.00000000E+00  1.00000000E+00  0.00000000E+00  0.00000000E+00  1.00000000E+00
  0.00000000E+00  0.00000000E+00  1.00000000E+00  0.00000000E+00  0.00000000E+00
Virial Ratio                               R      2.003595545139555E+00
SCF Energy                                 R     -2.045188133058082E+02
MP2 Energy                                 R     -2.051206481404312E+02
Total Energy                               R     -2.051206481404312E+02
Post-SCF wavefunction norm                 R      1.536380570696373E+00
RMS Force                                  R      6.840384149126830E-07
RMS Density                                R      3.971867893740563E-10
External E-field                           R   N=          35
  0.00000000E+00  0.00000000E+00  0.00000000E+00  0.00000000E+00  0.00000000E+00
  0.00000000E+00  0.00000000E+00  0.00000000E+00  0.00000000E+00  0.00000000E+00
  0.00000000E+00  0.00000000E+00  0.00000000E+00  0.00000000E+00  0.00000000E+00
  0.00000000E+00  0.00000000E+00  0.00000000E+00  0.00000000E+00  0.00000000E+00
  0.00000000E+00  0.00000000E+00  0.00000000E+00  0.00000000E+00  0.00000000E+00
  0.00000000E+00  0.00000000E+00  0.00000000E+00  0.00000000E+00  0.00000000E+00
  0.00000000E+00  0.00000000E+00  0.00000000E+00  0.00000000E+00  0.00000000E+00
IOpCl                                      I                0
IROHF                                      I                0
Alpha Orbital Energies                     R   N=          72
 -1.58065256E+01 -1.58065245E+01 -1.58064863E+01 -1.16167464E+01 -1.54899663E+00
 -1.40053354E+00 -1.40053200E+00 -1.07859711E+00 -9.81958638E-01 -9.81956619E-01
 -8.87071076E-01 -8.69374967E-01 -8.69373782E-01 -7.91685126E-01 -6.30401079E-01
 -6.30398291E-01 -6.33488143E-03  5.84235497E-03  6.65881554E-02  6.65889445E-02
  7.94683416E-02  7.94699679E-02  1.60299792E-01  2.45569977E-01  3.63110162E-01
  3.63119398E-01  5.60516090E-01  5.74013765E-01  5.75888880E-01  5.75891618E-01
  6.94918037E-01  7.20422196E-01  7.20425639E-01  7.74080222E-01  7.74088823E-01
  8.25900700E-01  9.50608540E-01  9.52172385E-01  9.64078862E-01  9.64080885E-01
  1.00511995E+00  1.00512265E+00  1.17038357E+00  1.17041201E+00  1.23512428E+00
  1.34932769E+00  1.34932852E+00  1.40740261E+00  1.67084820E+00  1.67088358E+00
  1.72976587E+00  1.72983438E+00  1.73675746E+00  1.94810799E+00  2.09890682E+00
  2.10412994E+00  2.10414850E+00  2.30225642E+00  2.30230516E+00  2.42411724E+00
  2.48724608E+00  2.64397997E+00  2.64401189E+00  2.70908981E+00  2.70909296E+00
  2.73554881E+00  3.19681454E+00  3.19682628E+00  3.98512846E+00  4.06098776E+00
  4.06098835E+00  4.41370153E+00
Alpha MO coefficients                      R   N=        5184
  1.01300838E-06  9.31661141E-06 -1.67104259E-04 -4.93468182E-05 -7.09388625E-10
  3.87556043E-05 -2.81957640E-03 -8.32655486E-04  6.34768269E-09 -8.03597279E-05
  6.79263806E-05 -2.08064794E-06 -5.58517829E-05  6.35418229E-06 -2.15209538E-05
  8.23763253E-01  2.11048311E-02  3.50405296E-04  1.03943941E-04  9.47098232E-08
 -3.03299242E-03 -1.17267201E-03 -3.48967172E-04 -1.42376033E-07 -2.93651599E-03
 -2.93271651E-03 -2.83919852E-03 -1.54484132E-06  6.79650873E-06 -2.28616673E-05
 -3.95371460E-01 -1.01344807E-02  1.21609977E-04 -1.29043064E-04  1.75552200E-06
  1.49158822E-03  5.85729332E-05  9.40324250E-04 -5.45806867E-05  1.34902312E-03
  1.46716865E-03  1.35882204E-03 -5.82844181E-06 -1.59309171E-05 -9.29571111E-07
 -3.93614192E-01 -1.00894557E-02  3.13550393E-05  1.73730784E-04 -1.71771602E-06
  1.48507854E-03  5.63537612E-04 -7.53926994E-04  5.46233840E-05  1.37325589E-03
  1.43041741E-03  1.35276800E-03 -6.00915238E-05  1.38095143E-05  7.93895532E-06
 -2.04197664E-04 -1.73990445E-04 -4.12739625E-05  9.83674833E-05  2.54741025E-04
  8.52864164E-05  2.54508079E-04  8.48915884E-05 -4.19357697E-05  9.79984958E-05
 -2.04622438E-04 -1.73965564E-04 -3.63508838E-09 -3.89837041E-08 -4.93593780E-05
  1.67136569E-04 -1.33537596E-09 -1.62633081E-07 -8.32826710E-04  2.82013330E-03
  1.21359481E-08  4.84057387E-05 -4.83551313E-05  9.54622481E-09 -8.56321903E-05
 -2.15221221E-05 -6.35708440E-06 -1.06215097E-03 -2.72046192E-05 -3.73264804E-06
  1.09379516E-05  1.93706969E-06  3.84660973E-06  2.39036470E-04 -8.00323988E-04
 -6.30209054E-05  4.11346557E-05 -3.35626030E-05  3.66408639E-06 -6.62885524E-05
  1.20928261E-05  3.61319728E-06 -7.03045862E-01 -1.80149549E-02  2.31040604E-04
 -2.11036618E-04 -8.30485422E-07  2.60911824E-03 -1.05289776E-03  4.21535422E-04
  3.14816584E-05  2.53874089E-03  2.46994357E-03  2.42090046E-03 -6.93749849E-07
 -9.48137522E-06 -1.91968530E-05  7.03961680E-01  1.80384519E-02 -7.86274341E-05
 -3.03306925E-04 -8.95007075E-07 -2.61272425E-03  6.51242551E-04  9.29374713E-04
  3.13882504E-05 -2.52091815E-03 -2.49428332E-03 -2.42403520E-03 -3.64460978E-05
 -1.84507964E-05  1.08988106E-05  1.71313256E-04 -7.33921679E-06  2.65122693E-04
  1.49480210E-04  9.36887703E-05  1.57046305E-04 -9.43456655E-05 -1.57284672E-04
 -2.65038958E-04 -1.49739042E-04 -1.70818803E-04  7.75832824E-06  5.01651045E-05
  4.61579170E-04  3.37116321E-06  1.00991353E-06 -1.15316478E-12  1.91879426E-03
  5.68026085E-05  1.70013433E-05  1.14693292E-09 -3.06466684E-04 -3.09465679E-04
 -1.03089040E-04  1.11893122E-06 -1.32798828E-07  4.36487280E-07  5.57870734E-01
  1.41255650E-02  1.86258354E-04  5.52400550E-05  6.33329312E-08 -8.68698416E-04
 -2.48093997E-04 -7.36335033E-05 -3.85256927E-08 -1.98015306E-03 -2.02066682E-03
 -2.05090034E-03  1.52141943E-05  2.91964898E-06 -9.83630729E-06  5.82421414E-01
  1.47546519E-02 -1.48793299E-04  1.41312159E-04 -1.51158337E-07 -9.59763709E-04
  2.04465978E-04 -2.13961821E-04  1.16691917E-06 -2.08539040E-03 -2.09034068E-03
 -2.13544033E-03 -2.76894728E-05  7.71394974E-06  7.81219311E-06  5.82505449E-01
  1.47568034E-02 -4.76501456E-05 -1.99635414E-04  9.28682963E-08 -9.60032423E-04
  5.47556889E-05  2.90948267E-04 -1.13226081E-06 -2.10908933E-03 -2.06724201E-03
 -2.13573244E-03  1.38302577E-05 -1.07275514E-05  2.34316798E-06  1.46242451E-04
  1.57062352E-04  1.42962369E-04  1.51583116E-04  1.36972686E-04  1.51842073E-04
  1.36962385E-04  1.51829808E-04  1.42932577E-04  1.51568546E-04  1.46221430E-04
  1.57057355E-04  9.95705373E-01  2.58796686E-02 -3.75589818E-09  2.80650231E-09
 -1.21044897E-09 -7.23169634E-03  5.13297188E-09  2.61491986E-08  3.34986730E-09
 -1.24793405E-03 -1.24795823E-03 -2.58340606E-03  7.36537609E-09  8.50285118E-09
 -6.77010338E-09 -3.56729043E-04  6.80860542E-05 -7.32208032E-05 -2.17203504E-05
  1.68320819E-09  1.34478840E-03  1.08727423E-04  3.22350941E-05 -1.04043251E-08
 -4.63650835E-04 -2.36205817E-04  9.84089434E-07 -8.54360333E-05  6.13649157E-06
 -2.06919072E-05 -3.56723942E-04  6.80892437E-05  5.54216851E-05 -5.25459835E-05
 -2.45878162E-09  1.34478416E-03 -8.23201287E-05  7.80162970E-05  1.39760491E-08
 -3.57137075E-04 -3.42715486E-04  9.84248091E-07  1.56441338E-04  1.48500313E-05
  1.56661182E-05 -3.56727731E-04  6.80895841E-05  1.77984010E-05  7.42668050E-05
  1.52991177E-09  1.34475860E-03 -2.64465493E-05 -1.10272416E-04 -1.07446789E-08
 -2.28990315E-04 -4.70858994E-04  9.84513341E-07 -7.10018550E-05 -2.09926168E-05
  5.03163573E-06  2.06595548E-06  9.65199697E-05  2.06216477E-06  9.64890570E-05
  2.06193709E-06  9.65194593E-05  2.06011002E-06  9.64933584E-05  2.06145883E-06
  9.64909018E-05  2.06068069E-06  9.65299291E-05 -1.40990270E-01  2.95339190E-01
 -5.43460401E-07  9.77842988E-07 -1.61802773E-08  3.76430037E-02  1.66087665E-07
 -3.12857109E-07  2.45302308E-08  9.96222939E-03  9.96210818E-03 -1.90137590E-02
  1.42538921E-07  8.71816556E-08 -7.63166212E-08 -1.00107726E-01  2.07388863E-01
  6.29806061E-02  1.86838863E-02  2.85565897E-06  2.00279910E-01  2.73124939E-02
  8.10260592E-03  1.74522819E-06  1.36820321E-02  6.33739474E-03 -5.39670422E-03
  2.75888087E-03 -1.01001585E-03  3.40425734E-03 -1.00106542E-01  2.07386370E-01
 -4.76720101E-02  4.51991470E-02 -5.12696439E-06  2.00277292E-01 -2.06737217E-02
  1.96012156E-02 -3.04808531E-06  1.02425187E-02  9.77662117E-03 -5.39648285E-03
 -5.05179014E-03 -2.44355836E-03 -2.57688730E-03 -1.00107405E-01  2.07388091E-01
 -1.53097572E-02 -6.38849542E-02  2.60585386E-06  2.00279362E-01 -6.63931283E-03
 -2.77044278E-02  1.53284327E-06  6.10432948E-03  1.39149280E-02 -5.39662313E-03
  2.29288150E-03  3.45332462E-03 -8.27426562E-04  4.48970274E-02 -2.97565275E-03
  4.48969201E-02 -2.97541530E-03  4.48972123E-02 -2.97542111E-03  4.48972070E-02
 -2.97524129E-03  4.48966985E-02 -2.97523581E-03  4.48966670E-02 -2.97550280E-03
  3.59747107E-07 -7.86443883E-07 -2.06859996E-01 -6.53187659E-02 -5.94420700E-07
 -8.20378226E-07  2.77997224E-02  8.77807944E-03 -9.18955606E-08  1.69553124E-02
 -1.69555252E-02  6.96380765E-08  1.22568068E-02  1.35858353E-04 -4.30181944E-04
 -1.66824614E-01  3.45228476E-01  1.66949640E-02  4.38468177E-03 -1.94073793E-06
  3.87562664E-01  1.67074167E-02  4.49131971E-03 -7.08201384E-06  1.25247935E-02
  1.53791834E-02 -8.91502347E-03 -1.13225369E-03 -2.18716534E-03  7.40535244E-03
  8.08906797E-02 -1.67396001E-01 -1.26601983E-02 -2.55116690E-02  3.83327283E-04
 -1.87922742E-01 -9.26449485E-03 -2.19593041E-02  5.31515216E-04 -4.52909303E-03
 -9.00078465E-03  4.32243904E-03 -8.32898341E-04  2.94170240E-03  2.37137060E-03
  8.59346342E-02 -1.77833977E-01 -2.38754754E-02  1.48610205E-02 -3.73672222E-04
 -1.99640704E-01 -1.91866018E-02  1.37589551E-02 -5.19466900E-04 -7.00693293E-03
 -7.36676045E-03  4.59212251E-03  2.68014730E-03 -3.98322418E-03  4.47797143E-04
 -5.79348987E-02  1.06095186E-03 -4.42024768E-02 -6.69698925E-04  9.90000626E-02
 -3.61882965E-04  9.92797332E-02 -3.96989317E-04 -4.10652770E-02 -6.98844171E-04
 -5.50770505E-02  1.06701986E-03 -1.17592875E-07  2.10778750E-07  6.53181959E-02
 -2.06859413E-01  7.39468693E-07  3.90975896E-08 -8.77792564E-03  2.77987598E-02
  2.42220331E-07  1.06148165E-02 -1.06147002E-02 -9.27027531E-09 -1.95784284E-02
  4.30209770E-04  1.35819489E-04  2.91182565E-03 -6.02578673E-03  8.56318994E-03
 -2.99236599E-02 -4.32415600E-04 -6.76469955E-03  6.96450157E-03 -2.45372553E-02
 -6.04171841E-04  1.14965296E-03 -1.63662046E-03  1.55526683E-04 -2.40877400E-03
  5.89061899E-04  3.38867037E-05 -1.45930892E-01  3.01990862E-01 -2.13364181E-02
 -5.69249527E-04  2.00761185E-04  3.39022455E-01 -1.94880729E-02  1.43399400E-03
  2.87481219E-04  1.33382056E-02  1.10708059E-02 -7.79818569E-03  1.82074637E-03
 -4.44638155E-03 -5.09269623E-03  1.43018050E-01 -2.95962977E-01  1.90386792E-02
  1.06471224E-02  2.18302653E-04 -3.32255381E-01  1.62318553E-02  1.13563166E-02
  3.08343865E-04 -1.38693602E-02 -1.00525058E-02  7.64265341E-03 -5.52992550E-04
 -6.36874726E-03  1.82988283E-03 -8.08665442E-02 -1.94326271E-04 -8.91179588E-02
  8.45347027E-04 -9.73941873E-03  1.01586686E-03  6.27879786E-03 -1.00261941E-03
  9.06071263E-02 -8.21206467E-04  8.28399991E-02  1.57317051E-04 -1.27921865E-01
  2.94384754E-01 -1.07140372E-06  6.51719113E-07 -1.65763109E-07  1.75995397E-01
  1.91032038E-07 -4.99575188E-08  5.60792352E-08  7.11535588E-03  7.11445104E-03
 -1.43950164E-02  1.29372033E-07  7.78858872E-07 -7.19650785E-07  5.00607285E-02
 -1.05160594E-01  2.25469399E-01  6.68922574E-02 -4.99869120E-06 -1.57604558E-01
  9.76243762E-02  2.89633765E-02 -2.97998884E-06  4.92182188E-03 -1.70339529E-02
  2.40239839E-03  8.24664998E-03  1.84195323E-03 -6.20363985E-03  5.00610103E-02
 -1.05161059E-01 -1.70659393E-01  1.61817292E-01  9.36120845E-06 -1.57605316E-01
 -7.38921843E-02  7.00637859E-02  5.45496152E-06 -5.35860277E-03 -6.75295597E-03
  2.40212957E-03 -1.51010233E-02  4.45489499E-03  4.69458503E-03  5.00616601E-02
 -1.05162483E-01 -5.48048353E-02 -2.28707020E-01 -5.03872849E-06 -1.57607301E-01
 -2.37293403E-02 -9.90257146E-02 -2.90267636E-06 -1.77298902E-02  5.61795599E-03
  2.40226967E-03  6.85477247E-03 -6.29380643E-03  1.50687059E-03 -9.93387028E-02
 -2.45842490E-02 -9.93400384E-02 -2.45846959E-02 -9.93389402E-02 -2.45841557E-02
 -9.93397780E-02 -2.45845467E-02 -9.93390914E-02 -2.45846943E-02 -9.93377722E-02
 -2.45837620E-02  1.66473744E-07 -7.05910095E-07  2.82943767E-01  2.33586676E-02
  5.69285499E-06  3.40991566E-06  8.52465821E-03  7.04592934E-04 -8.43481406E-07
  2.56161676E-05 -2.54264127E-05 -5.69900830E-08  2.96033347E-05 -1.75561812E-04
  2.12503560E-03 -2.22020541E-02  4.97245272E-02 -2.34800749E-01 -1.27772294E-01
 -9.19236066E-03  6.46511797E-02 -1.29067468E-01 -7.59835491E-02 -5.87186238E-03
 -6.18004968E-03  1.56435672E-02  3.02665378E-04 -6.35001935E-03 -8.87423778E-04
  5.85730297E-03  1.51195300E-02 -3.38619360E-02  1.04734031E-02  2.69809975E-01
 -3.35138912E-02 -4.40281642E-02  1.87651423E-02  1.63647144E-01 -2.14091159E-02
  2.09590097E-03 -8.54136710E-03 -2.05158966E-04 -9.23754122E-03  5.90192969E-04
  4.94405695E-03  7.08251577E-03 -1.58619547E-02  2.32152027E-01 -1.41395954E-01
  4.27215651E-02 -2.06256404E-02  1.52374913E-01 -8.41928815E-02  2.72920445E-02
 -2.14156314E-03 -8.78034405E-04 -9.57973208E-05  8.43646326E-03 -9.35319354E-04
  4.12228401E-03  8.35736492E-02  1.46379463E-02 -1.40696177E-01 -2.67096307E-02
  6.53846764E-02  1.44676507E-02  1.13679847E-01  2.33714282E-02 -1.48957257E-01
 -2.91061567E-02  2.70145982E-02  3.33702082E-03  6.13987848E-07 -1.70421708E-06
 -2.33577140E-02  2.82940878E-01 -7.12679354E-06  2.26169078E-06 -7.03524198E-04
  8.52865396E-03  6.84382222E-07  2.54695616E-05 -2.54773316E-05 -2.85941095E-08
 -2.97242337E-05 -2.12625190E-03 -1.75432813E-04 -4.64051215E-03  1.03931454E-02
 -1.28203148E-01  2.40021806E-01  4.40153675E-02  1.35129685E-02 -7.82986886E-02
  1.57117685E-01  2.81182917E-02  2.35983606E-03 -3.82814004E-04  6.41465657E-05
 -7.80756774E-03 -4.09517731E-03  6.64649334E-05 -1.69080345E-02  3.78677782E-02
  2.69378226E-01 -5.25497079E-03 -2.99883104E-02  4.92361678E-02  1.61330920E-01
  9.28412691E-03 -1.91582686E-02  7.47300561E-03 -2.67807969E-04  2.31848721E-04
  1.09320662E-02 -5.00866855E-03 -1.41309849E-03  2.15477896E-02 -4.82585892E-02
 -1.41823768E-01 -2.26930681E-01 -1.40499388E-02 -6.27500064E-02 -8.65070758E-02
 -1.24321360E-01 -8.97610934E-03 -1.60259612E-02  6.84215291E-03 -2.94140948E-04
  4.06274389E-03 -5.82989198E-03  1.14479304E-04 -1.23749282E-01 -2.51582044E-02
 -5.00336692E-02 -1.15669417E-02  1.34254019E-01  2.52572930E-02 -9.68299075E-02
 -1.73488517E-02 -1.05036134E-02 -9.95399911E-05  1.46863895E-01  2.89153130E-02
  7.81285869E-08 -2.82623824E-07  2.13930071E-05 -8.06461700E-06  1.42498769E-01
 -2.11162398E-07  2.40885243E-06 -1.66954177E-06  3.63492497E-02 -8.53683462E-07
  8.55949006E-07 -1.78504076E-08 -4.13821509E-06  6.04790940E-09 -4.70358313E-07
  1.92652008E-06 -4.26945526E-06 -6.76376066E-02  2.27914312E-01  1.58734662E-01
 -6.24910535E-06 -4.79881426E-02  1.61713164E-01  1.08833251E-01  6.93741760E-03
 -6.93815458E-03  1.47125105E-06 -1.23142418E-02  2.27037789E-03  6.75843747E-04
 -2.99329725E-06  6.83492540E-06 -1.63584373E-01 -1.72491445E-01  1.58737650E-01
  8.94321506E-06 -1.16065704E-01 -1.22391268E-01  1.08835853E-01 -1.27029623E-02
  1.27046701E-02 -2.59465485E-06 -7.81487511E-04 -1.71616900E-03  1.63250283E-03
  1.18773982E-06 -2.92841069E-06  2.31142293E-01 -5.53862363E-02  1.58722248E-01
 -2.92519024E-06  1.64005435E-01 -3.93002150E-02  1.08826434E-01  5.76424720E-03
 -5.76537890E-03  1.26513379E-06  1.30916117E-02 -5.50295523E-04 -2.30467402E-03
  1.26783408E-01  3.25525890E-02 -1.26779191E-01 -3.25506033E-02  1.26814413E-01
  3.25637302E-02 -1.26801146E-01 -3.25583253E-02  1.26794309E-01  3.25556193E-02