006_AcOH Gaussian SP Calculation on node144.bme.utexas.edu              
Freq      RMP2-FC                                                     6-31G(d)            
Number of atoms                            I                8
Info1-9                                    I   N=           9
          19          18        1002           0           0         100
           6           2           1
Charge                                     I                0
Multiplicity                               I                1
Number of electrons                        I               32
Number of alpha electrons                  I               16
Number of beta electrons                   I               16
Number of basis functions                  I               68
Number of independent functions            I               68
Number of point charges in /Mol/           I                0
Number of translation vectors              I                0
Atomic numbers                             I   N=           8
           6           8           8           1           6           1
           1           1
Nuclear charges                            R   N=           8
  6.00000000E+00  8.00000000E+00  8.00000000E+00  1.00000000E+00  6.00000000E+00
  1.00000000E+00  1.00000000E+00  1.00000000E+00
Current cartesian coordinates              R   N=          24
 -1.70437356E-01  2.37571276E-01 -8.17794138E-07 -1.24372819E+00  2.27367907E+00
  1.17684896E-07 -1.44367118E+00 -2.00084573E+00 -2.05966381E-07 -3.23740407E+00
 -1.54572806E+00  2.52159612E-06  2.63540555E+00 -1.88491522E-01 -6.19664056E-08
  3.59794965E+00  1.62969072E+00 -1.75873260E-05  3.17442116E+00 -1.28053739E+00
  1.66686509E+00  3.17441903E+00 -1.28057049E+00 -1.66684404E+00
Force Field                                I                0
Int Atom Types                             I   N=           8
           0           0           0           0           0           0
           0           0
MM charges                                 R   N=           8
  0.00000000E+00  0.00000000E+00  0.00000000E+00  0.00000000E+00  0.00000000E+00
  0.00000000E+00  0.00000000E+00  0.00000000E+00
Integer atomic weights                     I   N=           8
          12          16          16           1          12           1
           1           1
Real atomic weights                        R   N=           8
  1.20000000E+01  1.59949146E+01  1.59949146E+01  1.00782504E+00  1.20000000E+01
  1.00782504E+00  1.00782504E+00  1.00782504E+00
Atom fragment info                         I   N=           8
           0           0           0           0           0           0
           0           0
Atom residue num                           I   N=           8
           0           0           0           0           0           0
           0           0
Nuclear spins                              I   N=           8
           0           0           0           1           0           1
           1           1
Nuclear ZEff                               R   N=           8
 -3.60000000E+00 -5.60000000E+00 -5.60000000E+00 -1.00000000E+00 -3.60000000E+00
 -1.00000000E+00 -1.00000000E+00 -1.00000000E+00
Nuclear QMom                               R   N=           8
  0.00000000E+00  0.00000000E+00  0.00000000E+00  0.00000000E+00  0.00000000E+00
  0.00000000E+00  0.00000000E+00  0.00000000E+00
Nuclear GFac                               R   N=           8
  0.00000000E+00  0.00000000E+00  0.00000000E+00  2.79284600E+00  0.00000000E+00
  2.79284600E+00  2.79284600E+00  2.79284600E+00
MicOpt                                     I   N=           8
          -1          -1          -1          -1          -1          -1
          -1          -1
Number of contracted shells                I               24
Number of primitive shells                 I               60
Pure/Cartesian d shells                    I                1
Pure/Cartesian f shells                    I                0
Highest angular momentum                   I                2
Largest degree of contraction              I                6
Shell types                                I   N=          24
           0          -1          -1           2           0          -1
          -1           2           0          -1          -1           2
           0           0           0          -1          -1           2
           0           0           0           0           0           0
Number of primitives per shell             I   N=          24
           6           3           1           1           6           3
           1           1           6           3           1           1
           3           1           6           3           1           1
           3           1           3           1           3           1
Shell to atom map                          I   N=          24
           1           1           1           1           2           2
           2           2           3           3           3           3
           4           4           5           5           5           5
           6           6           7           7           8           8
Primitive exponents                        R   N=          60
  3.04752488E+03  4.57369518E+02  1.03948685E+02  2.92101553E+01  9.28666296E+00
  3.16392696E+00  7.86827235E+00  1.88128854E+00  5.44249258E-01  1.68714478E-01
  8.00000000E-01  5.48467166E+03  8.25234946E+02  1.88046958E+02  5.29645000E+01
  1.68975704E+01  5.79963534E+00  1.55396162E+01  3.59993359E+00  1.01376175E+00
  2.70005823E-01  8.00000000E-01  5.48467166E+03  8.25234946E+02  1.88046958E+02
  5.29645000E+01  1.68975704E+01  5.79963534E+00  1.55396162E+01  3.59993359E+00
  1.01376175E+00  2.70005823E-01  8.00000000E-01  1.87311370E+01  2.82539436E+00
  6.40121692E-01  1.61277759E-01  3.04752488E+03  4.57369518E+02  1.03948685E+02
  2.92101553E+01  9.28666296E+00  3.16392696E+00  7.86827235E+00  1.88128854E+00
  5.44249258E-01  1.68714478E-01  8.00000000E-01  1.87311370E+01  2.82539436E+00
  6.40121692E-01  1.61277759E-01  1.87311370E+01  2.82539436E+00  6.40121692E-01
  1.61277759E-01  1.87311370E+01  2.82539436E+00  6.40121692E-01  1.61277759E-01
Contraction coefficients                   R   N=          60
  1.83473713E-03  1.40373228E-02  6.88426223E-02  2.32184443E-01  4.67941348E-01
  3.62311985E-01 -1.19332420E-01 -1.60854152E-01  1.14345644E+00  1.00000000E+00
  1.00000000E+00  1.83107443E-03  1.39501722E-02  6.84450781E-02  2.32714336E-01
  4.70192898E-01  3.58520853E-01 -1.10777550E-01 -1.48026263E-01  1.13076702E+00
  1.00000000E+00  1.00000000E+00  1.83107443E-03  1.39501722E-02  6.84450781E-02
  2.32714336E-01  4.70192898E-01  3.58520853E-01 -1.10777550E-01 -1.48026263E-01
  1.13076702E+00  1.00000000E+00  1.00000000E+00  3.34946043E-02  2.34726953E-01
  8.13757326E-01  1.00000000E+00  1.83473713E-03  1.40373228E-02  6.88426223E-02
  2.32184443E-01  4.67941348E-01  3.62311985E-01 -1.19332420E-01 -1.60854152E-01
  1.14345644E+00  1.00000000E+00  1.00000000E+00  3.34946043E-02  2.34726953E-01
  8.13757326E-01  1.00000000E+00  3.34946043E-02  2.34726953E-01  8.13757326E-01
  1.00000000E+00  3.34946043E-02  2.34726953E-01  8.13757326E-01  1.00000000E+00
P(S=P) Contraction coefficients            R   N=          60
  0.00000000E+00  0.00000000E+00  0.00000000E+00  0.00000000E+00  0.00000000E+00
  0.00000000E+00  6.89990666E-02  3.16423961E-01  7.44308291E-01  1.00000000E+00
  0.00000000E+00  0.00000000E+00  0.00000000E+00  0.00000000E+00  0.00000000E+00
  0.00000000E+00  0.00000000E+00  7.08742682E-02  3.39752839E-01  7.27158577E-01
  1.00000000E+00  0.00000000E+00  0.00000000E+00  0.00000000E+00  0.00000000E+00
  0.00000000E+00  0.00000000E+00  0.00000000E+00  7.08742682E-02  3.39752839E-01
  7.27158577E-01  1.00000000E+00  0.00000000E+00  0.00000000E+00  0.00000000E+00
  0.00000000E+00  0.00000000E+00  0.00000000E+00  0.00000000E+00  0.00000000E+00
  0.00000000E+00  0.00000000E+00  0.00000000E+00  6.89990666E-02  3.16423961E-01
  7.44308291E-01  1.00000000E+00  0.00000000E+00  0.00000000E+00  0.00000000E+00
  0.00000000E+00  0.00000000E+00  0.00000000E+00  0.00000000E+00  0.00000000E+00
  0.00000000E+00  0.00000000E+00  0.00000000E+00  0.00000000E+00  0.00000000E+00
Coordinates of each shell                  R   N=          72
 -1.70437356E-01  2.37571276E-01 -8.17794138E-07 -1.70437356E-01  2.37571276E-01
 -8.17794138E-07 -1.70437356E-01  2.37571276E-01 -8.17794138E-07 -1.70437356E-01
  2.37571276E-01 -8.17794138E-07 -1.24372819E+00  2.27367907E+00  1.17684896E-07
 -1.24372819E+00  2.27367907E+00  1.17684896E-07 -1.24372819E+00  2.27367907E+00
  1.17684896E-07 -1.24372819E+00  2.27367907E+00  1.17684896E-07 -1.44367118E+00
 -2.00084573E+00 -2.05966381E-07 -1.44367118E+00 -2.00084573E+00 -2.05966381E-07
 -1.44367118E+00 -2.00084573E+00 -2.05966381E-07 -1.44367118E+00 -2.00084573E+00
 -2.05966381E-07 -3.23740407E+00 -1.54572806E+00  2.52159612E-06 -3.23740407E+00
 -1.54572806E+00  2.52159612E-06  2.63540555E+00 -1.88491522E-01 -6.19664056E-08
  2.63540555E+00 -1.88491522E-01 -6.19664056E-08  2.63540555E+00 -1.88491522E-01
 -6.19664056E-08  2.63540555E+00 -1.88491522E-01 -6.19664056E-08  3.59794965E+00
  1.62969072E+00 -1.75873260E-05  3.59794965E+00  1.62969072E+00 -1.75873260E-05
  3.17442116E+00 -1.28053739E+00  1.66686509E+00  3.17442116E+00 -1.28053739E+00
  1.66686509E+00  3.17441903E+00 -1.28057049E+00 -1.66684404E+00  3.17441903E+00
 -1.28057049E+00 -1.66684404E+00
Constraint Structure                       R   N=          24
 -1.70437356E-01  2.37571276E-01 -8.17794138E-07 -1.24372819E+00  2.27367907E+00
  1.17684896E-07 -1.44367118E+00 -2.00084573E+00 -2.05966381E-07 -3.23740407E+00
 -1.54572806E+00  2.52159612E-06  2.63540555E+00 -1.88491522E-01 -6.19664056E-08
  3.59794965E+00  1.62969072E+00 -1.75873260E-05  3.17442116E+00 -1.28053739E+00
  1.66686509E+00  3.17441903E+00 -1.28057049E+00 -1.66684404E+00
Num ILSW                                   I              100
ILSW                                       I   N=         100
           0           1           0           0           2           0
           0           0           0           0           0          -1
           0           0           0           0           0           0
           0           0           0           0           1           0
           1           0           0           0           0           0
           0           0      100000           0          -1           0
           0           0           0           0           0           0
           0           0           0           1           1           0
           0           0           1           0           0           0
           0           0           4          40           0           0
           0           0           0           0           0           0
           0           0           0           0           0           0
           0           0           0           0           0           0
           0           0           0           0           0           0
           0           0           0           0           0           0
           0           0           0           0           0           0
           0           0           0           0
Num RLSW                                   I               40
RLSW                                       R   N=          40
  1.00000000E+00  1.00000000E+00  1.00000000E+00  1.00000000E+00  1.00000000E+00
  0.00000000E+00  0.00000000E+00  1.00000000E+00  0.00000000E+00  0.00000000E+00
  0.00000000E+00  0.00000000E+00  1.00000000E+00  0.00000000E+00  0.00000000E+00
  0.00000000E+00  0.00000000E+00  1.00000000E+00  0.00000000E+00  0.00000000E+00
  0.00000000E+00  0.00000000E+00  1.00000000E+00  0.00000000E+00  0.00000000E+00
  0.00000000E+00  0.00000000E+00  1.00000000E+00  0.00000000E+00  0.00000000E+00
  0.00000000E+00  0.00000000E+00  0.00000000E+00  0.00000000E+00  0.00000000E+00
  0.00000000E+00  0.00000000E+00  0.00000000E+00  1.00000000E+00  1.00000000E+00
MxBond                                     I                4
NBond                                      I   N=           8
           3           1           2           1           4           1
           1           1
IBond                                      I   N=          32
           2           3           5           0           1           0
           0           0           1           4           0           0
           3           0           0           0           1           6
           7           8           5           0           0           0
           5           0           0           0           5           0
           0           0
RBond                                      R   N=          32
  2.00000000E+00  1.00000000E+00  1.00000000E+00  0.00000000E+00  2.00000000E+00
  0.00000000E+00  0.00000000E+00  0.00000000E+00  1.00000000E+00  1.00000000E+00
  0.00000000E+00  0.00000000E+00  1.00000000E+00  0.00000000E+00  0.00000000E+00
  0.00000000E+00  1.00000000E+00  1.00000000E+00  1.00000000E+00  1.00000000E+00
  1.00000000E+00  0.00000000E+00  0.00000000E+00  0.00000000E+00  1.00000000E+00
  0.00000000E+00  0.00000000E+00  0.00000000E+00  1.00000000E+00  0.00000000E+00
  0.00000000E+00  0.00000000E+00
Virial Ratio                               R      2.003188397707894E+00
SCF Energy                                 R     -2.278068205981303E+02
MP2 Energy                                 R     -2.284189373297866E+02
Total Energy                               R     -2.284189373297866E+02
Post-SCF wavefunction norm                 R      1.538411031322667E+00
RMS Force                                  R      2.130805577716827E-07
RMS Density                                R      1.005663654054554E-09
External E-field                           R   N=          35
  0.00000000E+00  0.00000000E+00  0.00000000E+00  0.00000000E+00  0.00000000E+00
  0.00000000E+00  0.00000000E+00  0.00000000E+00  0.00000000E+00  0.00000000E+00
  0.00000000E+00  0.00000000E+00  0.00000000E+00  0.00000000E+00  0.00000000E+00
  0.00000000E+00  0.00000000E+00  0.00000000E+00  0.00000000E+00  0.00000000E+00
  0.00000000E+00  0.00000000E+00  0.00000000E+00  0.00000000E+00  0.00000000E+00
  0.00000000E+00  0.00000000E+00  0.00000000E+00  0.00000000E+00  0.00000000E+00
  0.00000000E+00  0.00000000E+00  0.00000000E+00  0.00000000E+00  0.00000000E+00
IOpCl                                      I                0
IROHF                                      I                0
Alpha Orbital Energies                     R   N=          68
 -2.06202595E+01 -2.05592835E+01 -1.13956368E+01 -1.12476492E+01 -1.45765945E+00
 -1.35419311E+00 -1.02729112E+00 -8.16655412E-01 -7.00283426E-01 -6.75229718E-01
 -6.45562593E-01 -5.80314779E-01 -5.72061051E-01 -5.59886299E-01 -4.76628160E-01
 -4.51297173E-01  1.78031519E-01  2.21719313E-01  2.55307774E-01  3.04607845E-01
  3.23303308E-01  3.90612557E-01  4.71398344E-01  5.07167554E-01  7.32891630E-01
  7.62234593E-01  8.02641238E-01  8.16971263E-01  8.27467987E-01  9.22190479E-01
  9.96496609E-01  1.05544830E+00  1.10424034E+00  1.11544757E+00  1.15222683E+00
  1.19684895E+00  1.21191865E+00  1.23367106E+00  1.32236385E+00  1.32617958E+00
  1.35239143E+00  1.59667237E+00  1.63471827E+00  1.66251675E+00  1.74881183E+00
  1.83572937E+00  2.00382460E+00  2.02770487E+00  2.09373557E+00  2.09393039E+00
  2.12800789E+00  2.20017547E+00  2.28498123E+00  2.35440899E+00  2.51437913E+00
  2.54221967E+00  2.64473022E+00  2.76179694E+00  2.78570979E+00  2.97035668E+00
  3.03442319E+00  3.15924884E+00  3.31974163E+00  3.42152092E+00  4.20103279E+00
  4.42746589E+00  4.56328008E+00  4.84307568E+00
Alpha MO coefficients                      R   N=        4624
 -2.49309593E-06  3.77727363E-04 -1.52005262E-04 -2.77399838E-04  5.75517987E-11
 -4.57394372E-05 -3.66385116E-04  2.96910276E-04  1.11612243E-09 -1.73607693E-05
 -5.09443621E-05 -5.35532841E-05 -4.40320386E-05  5.84534586E-11  2.25305494E-11
 -2.84081704E-04  3.67189624E-05  1.48397611E-05  4.30901585E-05  4.93096120E-11
 -3.56252704E-04  1.38296692E-05  1.12565239E-04 -2.70693674E-10  5.81024885E-05
 -5.19498983E-05  7.64465245E-08 -2.18622377E-05 -7.43481085E-11  4.43336892E-11
  9.94641403E-01  2.11812768E-02 -4.91080864E-04  1.16937087E-03  1.26478712E-09
  4.00638147E-03  3.50679395E-04 -5.33442302E-04 -8.14150354E-10 -4.14817737E-03
 -4.08453865E-03 -3.93907979E-03 -2.90851070E-05  3.54692296E-10 -7.28570975E-11
  4.26899120E-04 -2.49986053E-04  1.34242488E-06  4.83885387E-05 -8.94907013E-06
 -1.70863294E-05  4.38564342E-10  2.79842448E-04  4.01998013E-05  1.80610786E-04
 -2.95629508E-09 -6.03806808E-05 -1.38540611E-06 -1.50665379E-05 -3.01707517E-05
 -5.85779828E-11 -3.36112661E-10 -1.80848908E-05 -1.54753846E-04  2.95629982E-05
 -2.57264215E-05  2.95635623E-05 -2.57297965E-05 -3.50525822E-06  4.87294835E-04
  3.01265991E-05 -5.42050037E-05 -6.03955795E-11 -3.40702742E-04  3.92072685E-04
 -4.18039865E-04  1.04364000E-10 -2.15347325E-04 -6.62759405E-04 -3.02082610E-05
  3.56603850E-04  2.13704106E-10 -3.05733760E-10  9.94692722E-01  2.09858426E-02
  6.96031091E-04 -1.41315397E-03 -6.01913365E-10  4.51655662E-03 -2.14657457E-05
  4.03750027E-06 -1.17471672E-10 -3.83965398E-03 -3.65397769E-03 -4.13060663E-03
 -1.53318700E-04 -2.35118672E-10  1.80619106E-10  2.86672077E-04 -3.93167997E-05
  9.22678301E-06 -3.98980707E-05  6.50988320E-12  1.34607975E-04  2.82511201E-06
  7.47779898E-05 -6.42370114E-11  4.13529383E-05 -7.50325024E-05 -6.63326346E-05
  5.84235099E-05 -8.43058376E-11 -5.32049938E-11 -2.03293737E-05 -1.64494585E-05
  2.79355533E-06  9.84206171E-06 -8.66331008E-06 -2.76840389E-05  8.50858536E-11
 -1.83011144E-04  1.53776332E-04  3.43310619E-05 -6.67683958E-10  2.83511808E-05
 -1.77333951E-05 -8.57120872E-06  5.81253642E-05  2.98131471E-11  2.54537655E-11
  7.76166680E-06 -6.38860135E-05  1.55335316E-05 -2.53960325E-05  1.55335137E-05
 -2.53967574E-05  9.95899048E-01  2.58439254E-02 -8.03226902E-04 -4.96117937E-04
  7.14396990E-10 -6.32736623E-03 -4.56536673E-03  1.81438059E-03  3.77235957E-10
 -1.14441044E-03 -5.31072506E-04 -2.28020615E-03 -2.12146106E-04 -4.51173711E-10
  1.96795204E-10 -2.72659417E-04  6.82021087E-04  9.33828805E-05 -2.95780116E-04
 -1.80278364E-10 -3.52667895E-03 -1.38402722E-04  1.95093839E-03  1.32968709E-09
  3.15999794E-04 -2.56290654E-05  4.12677458E-04 -5.11584631E-05  1.19338050E-10
 -3.53620541E-10 -9.06823615E-05  6.08675519E-04 -1.92985101E-05  1.76134445E-04
  2.31706190E-11 -1.34092654E-03  1.75390122E-04 -1.71302219E-03 -1.40600452E-11
 -1.49771846E-06 -5.45573527E-04  4.94127633E-04 -3.87636101E-04  4.57239580E-10
  2.86134492E-10  3.06350631E-04  5.43370139E-05  2.05467248E-03 -6.45325414E-06
  1.04836171E-04 -1.68907355E-05  6.59947651E-10  4.65644793E-03 -2.47765796E-03
  1.56529714E-04 -4.49219713E-09 -4.99705872E-04 -1.85437067E-04 -1.26058604E-04
  4.74675129E-05 -1.44116049E-11  5.17362044E-10 -1.25102644E-04  1.95844291E-04
 -1.94323736E-04  2.48414134E-04 -1.94323682E-04  2.48407959E-04 -2.41269055E-03
  5.69923346E-05  5.68316036E-05  2.03828059E-06  4.66287009E-11  3.52490839E-03
  2.60502117E-03  3.86608584E-04 -7.10576278E-10 -6.28642144E-04 -3.27550680E-04
 -1.42779110E-04  7.05832668E-05  1.63975204E-10  1.22830248E-10 -9.67414962E-06
 -1.01839864E-04 -1.55144933E-05 -2.58126126E-06 -3.14171290E-10  1.54273867E-04
 -2.76068523E-04 -3.27828306E-04  1.19375364E-09 -4.58014162E-05  1.14768119E-04
 -1.40924082E-04 -2.14412616E-05  4.25469324E-10  8.10847002E-11 -5.22937815E-05
 -3.39685064E-04 -1.09895479E-04 -4.37005239E-05 -2.77034485E-10  1.20241680E-03
  4.99843352E-04  4.41274176E-04  1.07036358E-09 -6.13937714E-05 -8.78225912E-05
 -2.77211158E-04  7.29993053E-05  5.77330332E-10 -7.69813062E-11  3.42018257E-05
  2.98958954E-04  9.95700194E-01  2.88313884E-02 -3.69355180E-04 -7.55637363E-05
  2.72265003E-09 -1.57547048E-02  1.19302563E-03 -1.24099878E-04 -5.90593749E-09
 -1.88916295E-03 -1.89484114E-03 -1.88396301E-03  4.17898084E-05 -2.28393056E-10
  2.13898011E-10  1.75679916E-04  2.45810938E-03  1.59496470E-04  2.60119043E-03
  1.59496480E-04  2.60118520E-03 -1.12735536E-01  2.17842006E-01 -8.81275096E-02
 -5.74879945E-04  7.16954891E-08  5.09576325E-02  2.47121409E-02 -3.21968620E-03
 -3.97225221E-09 -3.29423934E-03  2.25765979E-02 -1.82651151E-02  2.12345696E-03
 -9.99645138E-09  2.25400471E-09 -1.04844696E-01  2.30736307E-01  3.11848544E-02
 -8.06754803E-02 -2.38355849E-08  2.06032358E-01  6.53184654E-03 -3.52947462E-02
 -7.07566245E-09 -9.21993817E-04  1.09333449E-02 -8.92044099E-04 -5.00906287E-03
 -8.69113265E-10  3.75380736E-09 -1.60194319E-01  3.61413855E-01 -8.31882351E-03
  8.73103976E-02  5.75523483E-08  3.34263207E-01 -8.94410729E-03  5.06393943E-02
  3.49386846E-08  1.63310041E-02  1.57215692E-02 -1.21823494E-03  1.13762675E-03
 -2.90715413E-08  8.75597461E-09  8.56333307E-02 -4.34198345E-03 -1.59395127E-02
  3.10208929E-02 -2.56732328E-02  1.75152511E-03  3.18035437E-10  1.19037932E-03
  2.85035882E-03 -8.29757479E-04 -1.38546358E-08  7.63177608E-03 -2.89901470E-04
  9.60661406E-05 -1.27219013E-03  2.12556010E-09  1.86716228E-09  5.67800923E-03
 -1.14881906E-03  5.89159598E-03  9.15096334E-04  5.89161555E-03  9.15070123E-04
 -5.00245750E-02  9.86470918E-02 -3.30382408E-02  2.16846654E-01  4.59841923E-08
  2.81051104E-02  9.10209494E-03 -2.31509413E-02 -2.22981264E-09 -5.56546515E-03
  5.27197189E-03 -7.79650791E-03 -3.36878282E-02 -4.66359453E-09  2.57404551E-08
 -1.68274269E-01  3.67301892E-01  5.66675567E-02 -8.81239269E-02 -4.32071618E-08
  3.58423540E-01  2.47297134E-02 -3.79537403E-02 -2.16952802E-08  1.89122902E-03
  8.74265736E-03 -3.54949462E-03 -8.49440925E-03 -5.49446889E-09  6.98800554E-09
  1.29339445E-01 -2.90802015E-01  1.86563937E-02 -3.16530465E-02 -5.36797581E-08
 -2.96988229E-01  9.40423165E-03 -1.81156774E-02 -3.10774081E-08 -1.48607380E-02
 -1.54146308E-03  9.38807255E-04  2.18561215E-03  2.63416039E-08 -6.82850567E-09
 -7.23242883E-02  5.51856036E-03 -4.68121443E-03  8.89473727E-03 -6.12581006E-03
  1.13500908E-02  2.49436878E-09 -1.08962506E-03  4.97761290E-03  1.20949706E-02
 -7.23826919E-10  1.79340286E-03  9.46832318E-04 -6.25693878E-04 -3.04941631E-03
 -2.42593681E-09 -2.03550873E-08  4.38391209E-03 -2.33154420E-03  4.66395585E-04
 -4.83713388E-04  4.66352870E-04 -4.83709974E-04 -7.28098571E-02  1.58016935E-01
  1.80724558E-01 -6.58486947E-02  1.20188828E-08  9.60038176E-02  3.42051779E-02
 -1.95569017E-02  4.71164306E-08  1.64772485E-02 -5.78206001E-03 -5.51687876E-03
 -2.39845845E-03  1.05102659E-08 -3.21197266E-09  4.12996482E-02 -9.32434370E-02
  3.85964238E-02  2.79310983E-03  1.50188281E-08 -1.01599577E-01  1.76069285E-02
 -5.80737158E-04 -1.93240306E-08  1.72699546E-03 -3.25117164E-03  5.73274055E-04
 -2.72300555E-03 -2.92164334E-10 -4.07387155E-10  2.89019537E-02 -6.43281475E-02
  1.07555835E-01  2.05181580E-02 -6.09466657E-08 -9.15779096E-02  5.02311671E-02
  7.39333922E-03 -5.59147058E-08 -6.68001312E-03  3.19184475E-03  9.84304159E-04
  9.06383455E-03  1.57400855E-08 -8.00266365E-09 -6.19363706E-02 -1.13095390E-02
 -1.75234039E-01  3.28115037E-01 -5.09354115E-02 -3.22516245E-04  9.31942766E-08
  3.13665326E-01 -3.87413889E-03  2.49176564E-03 -4.42333141E-08  9.62835814E-03
  7.17027041E-03  7.87746628E-03 -3.16392174E-04 -1.97997758E-09  1.91460508E-09
  1.04347655E-01  1.39201531E-02  1.09741405E-01  2.07091575E-02  1.09741373E-01
  2.07090444E-02 -1.03290296E-01  2.29552380E-01 -4.71903934E-02 -1.55078967E-01
 -5.48444882E-08  1.63808291E-01  2.20331979E-02 -2.00734142E-02  1.43876398E-08
 -8.29995269E-03  1.54868059E-02 -1.09118825E-02  8.04415283E-03  4.55937489E-09
  2.83326447E-09  4.17690960E-02 -9.27523411E-02  1.39423825E-02 -9.89636777E-02
 -6.35722275E-08 -1.39679426E-01  1.76598489E-03 -5.38492899E-02 -4.54453631E-08
 -4.11201812E-03  8.89211892E-03  4.20330204E-04 -1.82463634E-03  5.02318296E-10
  8.11874092E-09  2.92317250E-02 -7.11094908E-02  3.42344710E-01  1.96799480E-01
 -4.02222033E-07 -8.66740876E-02  2.03254125E-01  1.16671118E-01 -2.50411410E-07
 -2.80058443E-02  2.00294424E-02 -1.75899712E-03  2.36341265E-02  5.49279024E-08
 -2.29969536E-08 -1.70739132E-01 -6.05155725E-02  7.40680792E-02 -1.31854157E-01
 -1.43923255E-01 -1.71986980E-02 -1.35308240E-07 -1.92387511E-01 -3.54659646E-02
 -5.16182305E-03 -1.95817077E-07  1.31355157E-02 -1.27271902E-02 -8.44278441E-03
 -3.06772270E-03  1.66811959E-08  5.62139224E-08 -9.85306890E-02 -4.90418087E-02
 -7.17612083E-02 -2.91861938E-02 -7.17608587E-02 -2.91862048E-02  7.20606963E-02
 -1.73108055E-01  6.91656071E-02 -1.84426934E-01 -3.14689957E-07 -9.65190898E-02
 -2.08312014E-04 -9.10677531E-03 -1.56459381E-07 -9.54152856E-03  1.17340510E-02
  6.74876500E-03  3.77653984E-03  1.75064544E-08  8.21316934E-09 -8.75717070E-02
  2.01850473E-01 -1.57665347E-01  3.25842704E-01 -4.30249619E-08  3.26843139E-01
 -8.49446527E-02  1.82902213E-01 -1.63550412E-08  6.42365572E-04 -1.84676566E-02
  6.40230671E-03  1.59577180E-02 -1.32628787E-09  2.94610782E-09 -4.36390538E-02
  1.03519840E-01  2.76981604E-01 -1.77386737E-01 -6.32456704E-07  1.60604035E-01
  1.86693170E-01 -1.24100661E-01 -4.26889231E-07 -9.29583697E-03 -9.89480659E-03
  7.76509147E-03  1.85519984E-02  3.79290749E-08 -4.74207847E-08 -1.34801679E-01
 -4.61810439E-02 -3.57641179E-04  5.78701203E-04  2.55347520E-02 -9.86952634E-02
 -3.26034641E-07 -5.25697368E-03 -3.13046323E-03 -5.93461956E-02  1.40132664E-08
 -5.17450488E-03 -1.50053337E-03  6.22441937E-03  7.81412354E-04  1.89327121E-08
  1.83224733E-07 -3.94628883E-02 -5.96721418E-03  3.39575663E-02  2.53194971E-02
  3.39588139E-02  2.53203995E-02  2.81706219E-02 -6.50077924E-02 -2.82951980E-01
 -1.54326052E-01  2.31678843E-07 -8.79609161E-02 -1.24810373E-01  8.92116324E-04
  1.51779390E-07  7.06951503E-03 -1.77271622E-03 -6.74914791E-04  7.62315827E-03
 -1.15423966E-08 -5.15671556E-10 -1.37039853E-02  3.56254542E-02 -2.74256490E-01
 -6.13964804E-02  2.56084618E-07  3.06840891E-02 -1.70210554E-01 -3.54091184E-02
  1.61410920E-07 -1.18658340E-02  1.10155054E-02  1.86440167E-03  1.47586454E-02
  1.32881459E-08 -1.57996730E-08  3.89211704E-02 -9.02824904E-02 -8.63003189E-03
  3.19029810E-01  1.31881855E-07 -1.50021007E-01 -2.84476872E-04  2.07020777E-01
  6.79829662E-08 -8.97675341E-03  2.22701146E-02 -6.01538940E-03 -4.74868043E-03
  9.48005284E-10  2.17497149E-08  1.62964753E-02  4.33775142E-03 -2.91064543E-02
  4.86434725E-02  2.10514381E-01 -1.27790435E-01  4.59823578E-07  1.26124777E-01
  7.65049109E-02 -5.95210111E-02  4.85656033E-08 -1.71159454E-02  6.09766989E-03
  1.65582216E-02  3.27789284E-03  9.87183285E-09  1.48146467E-07  1.90453058E-02
  4.48967911E-03  9.78264589E-02  5.50936419E-02  9.78270162E-02  5.50937055E-02
  3.85702040E-08 -1.48835768E-07  6.03610788E-07 -3.96003784E-07  2.54777639E-01
  3.57395292E-07  1.62084276E-07 -9.16462345E-08  1.20494482E-01 -1.74436067E-08
 -1.16129945E-08  4.34056334E-08  1.08652190E-08 -8.15722065E-03 -2.66735041E-03
 -1.17191622E-07  3.20569106E-07 -6.08699693E-08  6.62386606E-07  2.17386706E-01
  3.32600163E-07 -6.56343791E-08  4.49968359E-07  1.40209426E-01  3.73034274E-08
 -2.42276213E-08  2.01413259E-08  1.51442256E-08  9.27021310E-03 -1.91461934E-02
  2.63638102E-09  6.47492363E-08  4.94018921E-07 -2.00443867E-07  3.51921240E-01
 -2.16432101E-07  2.44707563E-07 -2.20319308E-07  2.48911449E-01  2.18225043E-08
 -1.66599495E-09  5.86934910E-08  2.22923783E-08 -1.65135938E-03  2.21518995E-02
  5.56084703E-10 -7.67919838E-09  9.58664246E-08 -1.88249645E-07 -6.36615089E-07
 -1.03304596E-08  2.50068990E-01 -3.87098688E-07 -3.05209773E-07 -1.29107372E-07
  1.22765099E-01  4.20420486E-09 -4.37273802E-07  4.16166004E-07 -6.22895085E-08
 -6.48663415E-05 -1.72374606E-02 -1.55813444E-06 -9.34322153E-07  1.23191820E-01
  8.72730080E-02 -1.23190674E-01 -8.72722246E-02 -3.78314846E-03  6.40405578E-03
  1.72460766E-01 -2.21377808E-01 -3.25015480E-07  3.01283514E-02  1.51139520E-02
  5.82142216E-03 -9.51293984E-08  1.89394045E-02 -1.25114852E-02  2.35937461E-03
  2.90390114E-02 -7.26468900E-09 -5.30359954E-08 -2.87398436E-02  6.81346140E-02
 -1.05171589E-01  3.24362037E-01 -1.59222083E-07  1.23136608E-01 -6.65919102E-02
  2.02723441E-01 -1.32830304E-07  4.76664955E-03 -1.90036752E-02  5.34092387E-03
  1.10762576E-02 -9.17289682E-09  9.94848860E-09  3.19458209E-02 -7.47973538E-02
 -1.34640797E-01  2.87839230E-01  1.55069228E-07 -1.30550782E-01 -8.60546616E-02
  2.06923563E-01  1.11616570E-07  6.68813988E-03  1.12049384E-02 -7.16155580E-03
 -8.60233278E-03 -2.22965860E-08  1.44366447E-08  8.98475734E-02  4.91677527E-02
 -3.86202688E-03  8.86724688E-03 -1.27628992E-01  2.43085225E-01 -5.39868477E-07
  4.03498583E-02 -6.83453838E-02  1.29900727E-01 -4.64575894E-07  1.52634903E-02
  1.28363248E-03 -1.88219078E-02  1.11802947E-02 -4.90879070E-08 -3.83969669E-07
  1.03151968E-01  7.52617808E-02 -1.05221589E-01 -8.75904580E-02 -1.05223573E-01
 -8.75922588E-02  2.10151714E-02 -4.68179340E-02 -1.79812562E-01  4.02134398E-02
  2.01592281E-07 -8.27593803E-02 -5.20414212E-02 -4.64240156E-03  5.01946685E-08
 -1.40667799E-02  1.42485658E-02 -2.09401030E-03  1.04738510E-02 -2.17540872E-09
 -3.54475559E-08  7.80830010E-03 -1.88276852E-02 -5.15650615E-04 -1.00817728E-01
  7.61866622E-08 -3.00045075E-02  3.87910363E-03 -6.41111427E-02  4.73675351E-08
 -4.47328714E-03  9.20125139E-03 -1.86791388E-03 -7.43717315E-04  7.07632356E-09
 -1.04963768E-08 -3.47891524E-02  7.58787114E-02  2.23603845E-01 -7.44952034E-02
 -9.68331744E-09  1.61371675E-01  1.65786362E-01 -5.48997992E-02  5.74975832E-08
 -1.85215329E-02 -7.48002164E-04  2.26020258E-03  1.29755255E-02  3.94821418E-08
 -3.36886412E-09 -1.17870085E-01 -7.21629544E-02  7.67869846E-04 -2.44034157E-03
  2.40003400E-01  3.26551413E-01  4.21067034E-07 -5.65299209E-03  1.22164549E-01
  1.83750781E-01  2.97276174E-07 -8.17071263E-03  2.48101313E-02 -1.34196753E-02