13711                                                                   
Freq      RMP2-FC                                                     6-31G(d)            
Number of atoms                            I               29
Info1-9                                    I   N=           9
          41          39        1002           0           0         100
           6           2           1
Charge                                     I                0
Multiplicity                               I                1
Number of electrons                        I              120
Number of alpha electrons                  I               60
Number of beta electrons                   I               60
Number of basis functions                  I              266
Number of independent functions            I              266
Number of point charges in /Mol/           I                0
Number of translation vectors              I                0
Atomic numbers                             I   N=          29
           8           8           8           8           7           7
           7           6           6           6           6           6
           6           6           6           6           1           1
           1           1           1           1           1           1
           1           1           1           1           1
Nuclear charges                            R   N=          29
  8.00000000E+00  8.00000000E+00  8.00000000E+00  8.00000000E+00  7.00000000E+00
  7.00000000E+00  7.00000000E+00  6.00000000E+00  6.00000000E+00  6.00000000E+00
  6.00000000E+00  6.00000000E+00  6.00000000E+00  6.00000000E+00  6.00000000E+00
  6.00000000E+00  1.00000000E+00  1.00000000E+00  1.00000000E+00  1.00000000E+00
  1.00000000E+00  1.00000000E+00  1.00000000E+00  1.00000000E+00  1.00000000E+00
  1.00000000E+00  1.00000000E+00  1.00000000E+00  1.00000000E+00
Current cartesian coordinates              R   N=          87
 -2.77697782E+00  5.72702026E-01 -2.05497839E+00 -6.88548128E+00 -2.68417491E+00
 -5.04435298E-01 -3.19577886E+00  5.39256777E+00  5.87238443E-06  2.24079401E+00
 -4.71700426E+00  1.65266305E-01  1.29304200E+00 -5.95317632E-01 -6.42372874E-01
  5.50548328E+00 -1.82308954E+00  3.98432186E-01  8.62409991E+00  1.16763694E+00
  7.15305400E-01 -5.23205154E+00 -1.29606241E+00  1.10796372E+00 -2.60551223E+00
 -2.47902726E+00  1.24118290E+00 -4.71019583E+00  1.18741760E+00 -2.44878143E-01
 -1.31135445E+00 -1.47504368E+00 -1.15569491E+00 -3.85771009E+00  3.27392411E+00
  1.52829237E+00  1.99272243E+00  1.85917508E+00 -9.23720543E-01  3.03883623E+00
 -2.52938813E+00  2.00945264E-03  4.43850287E+00  2.54698782E+00 -4.95643034E-01
  6.15645831E+00  5.75634979E-01  1.65595739E-01 -6.08276474E+00 -1.01700394E+00
  2.98542792E+00 -1.57635092E+00 -1.85227895E+00  2.92229679E+00 -2.63619325E+00
 -4.54160761E+00  1.27650491E+00 -1.18354032E+00 -2.90723951E+00 -2.63964938E+00
 -6.34787523E+00  1.82198387E+00 -1.33377778E+00 -2.23925192E+00  2.63424943E+00
  2.66416147E+00 -5.41744846E+00  3.73091497E+00  2.82480996E+00 -6.97411049E+00
 -4.40202024E+00  1.46378508E-01  5.04220222E-01  3.16533759E+00 -1.45646932E+00
 -2.70628673E+00  6.75784283E+00  1.12860731E+00  5.03066846E+00  4.49939200E+00
 -6.79626730E-01  9.36368833E+00  2.72434622E+00 -1.11820603E-01  9.78824597E+00
 -3.52958573E-01  7.76090749E-01
Force Field                                I                0
Int Atom Types                             I   N=          29
           0           0           0           0           0           0
           0           0           0           0           0           0
           0           0           0           0           0           0
           0           0           0           0           0           0
           0           0           0           0           0
MM charges                                 R   N=          29
  0.00000000E+00  0.00000000E+00  0.00000000E+00  0.00000000E+00  0.00000000E+00
  0.00000000E+00  0.00000000E+00  0.00000000E+00  0.00000000E+00  0.00000000E+00
  0.00000000E+00  0.00000000E+00  0.00000000E+00  0.00000000E+00  0.00000000E+00
  0.00000000E+00  0.00000000E+00  0.00000000E+00  0.00000000E+00  0.00000000E+00
  0.00000000E+00  0.00000000E+00  0.00000000E+00  0.00000000E+00  0.00000000E+00
  0.00000000E+00  0.00000000E+00  0.00000000E+00  0.00000000E+00
Integer atomic weights                     I   N=          29
          16          16          16          16          14          14
          14          12          12          12          12          12
          12          12          12          12           1           1
           1           1           1           1           1           1
           1           1           1           1           1
Real atomic weights                        R   N=          29
  1.59949146E+01  1.59949146E+01  1.59949146E+01  1.59949146E+01  1.40030740E+01
  1.40030740E+01  1.40030740E+01  1.20000000E+01  1.20000000E+01  1.20000000E+01
  1.20000000E+01  1.20000000E+01  1.20000000E+01  1.20000000E+01  1.20000000E+01
  1.20000000E+01  1.00782504E+00  1.00782504E+00  1.00782504E+00  1.00782504E+00
  1.00782504E+00  1.00782504E+00  1.00782504E+00  1.00782504E+00  1.00782504E+00
  1.00782504E+00  1.00782504E+00  1.00782504E+00  1.00782504E+00
Atom fragment info                         I   N=          29
           0           0           0           0           0           0
           0           0           0           0           0           0
           0           0           0           0           0           0
           0           0           0           0           0           0
           0           0           0           0           0
Atom residue num                           I   N=          29
           0           0           0           0           0           0
           0           0           0           0           0           0
           0           0           0           0           0           0
           0           0           0           0           0           0
           0           0           0           0           0
Nuclear spins                              I   N=          29
           0           0           0           0           2           2
           2           0           0           0           0           0
           0           0           0           0           1           1
           1           1           1           1           1           1
           1           1           1           1           1
Nuclear ZEff                               R   N=          29
 -5.60000000E+00 -5.60000000E+00 -5.60000000E+00 -5.60000000E+00 -4.55000000E+00
 -4.55000000E+00 -4.55000000E+00 -3.60000000E+00 -3.60000000E+00 -3.60000000E+00
 -3.60000000E+00 -3.60000000E+00 -3.60000000E+00 -3.60000000E+00 -3.60000000E+00
 -3.60000000E+00 -1.00000000E+00 -1.00000000E+00 -1.00000000E+00 -1.00000000E+00
 -1.00000000E+00 -1.00000000E+00 -1.00000000E+00 -1.00000000E+00 -1.00000000E+00
 -1.00000000E+00 -1.00000000E+00 -1.00000000E+00 -1.00000000E+00
Nuclear QMom                               R   N=          29
  0.00000000E+00  0.00000000E+00  0.00000000E+00  0.00000000E+00  2.04400000E+00
  2.04400000E+00  2.04400000E+00  0.00000000E+00  0.00000000E+00  0.00000000E+00
  0.00000000E+00  0.00000000E+00  0.00000000E+00  0.00000000E+00  0.00000000E+00
  0.00000000E+00  0.00000000E+00  0.00000000E+00  0.00000000E+00  0.00000000E+00
  0.00000000E+00  0.00000000E+00  0.00000000E+00  0.00000000E+00  0.00000000E+00
  0.00000000E+00  0.00000000E+00  0.00000000E+00  0.00000000E+00
Nuclear GFac                               R   N=          29
  0.00000000E+00  0.00000000E+00  0.00000000E+00  0.00000000E+00  4.03761000E-01
  4.03761000E-01  4.03761000E-01  0.00000000E+00  0.00000000E+00  0.00000000E+00
  0.00000000E+00  0.00000000E+00  0.00000000E+00  0.00000000E+00  0.00000000E+00
  0.00000000E+00  2.79284600E+00  2.79284600E+00  2.79284600E+00  2.79284600E+00
  2.79284600E+00  2.79284600E+00  2.79284600E+00  2.79284600E+00  2.79284600E+00
  2.79284600E+00  2.79284600E+00  2.79284600E+00  2.79284600E+00
MicOpt                                     I   N=          29
          -1          -1          -1          -1          -1          -1
          -1          -1          -1          -1          -1          -1
          -1          -1          -1          -1          -1          -1
          -1          -1          -1          -1          -1          -1
          -1          -1          -1          -1          -1
Number of contracted shells                I               90
Number of primitive shells                 I              228
Pure/Cartesian d shells                    I                1
Pure/Cartesian f shells                    I                0
Highest angular momentum                   I                2
Largest degree of contraction              I                6
Shell types                                I   N=          90
           0          -1          -1           2           0          -1
          -1           2           0          -1          -1           2
           0          -1          -1           2           0          -1
          -1           2           0          -1          -1           2
           0          -1          -1           2           0          -1
          -1           2           0          -1          -1           2
           0          -1          -1           2           0          -1
          -1           2           0          -1          -1           2
           0          -1          -1           2           0          -1
          -1           2           0          -1          -1           2
           0          -1          -1           2           0           0
           0           0           0           0           0           0
           0           0           0           0           0           0
           0           0           0           0           0           0
           0           0           0           0           0           0
Number of primitives per shell             I   N=          90
           6           3           1           1           6           3
           1           1           6           3           1           1
           6           3           1           1           6           3
           1           1           6           3           1           1
           6           3           1           1           6           3
           1           1           6           3           1           1
           6           3           1           1           6           3
           1           1           6           3           1           1
           6           3           1           1           6           3
           1           1           6           3           1           1
           6           3           1           1           3           1
           3           1           3           1           3           1
           3           1           3           1           3           1
           3           1           3           1           3           1
           3           1           3           1           3           1
Shell to atom map                          I   N=          90
           1           1           1           1           2           2
           2           2           3           3           3           3
           4           4           4           4           5           5
           5           5           6           6           6           6
           7           7           7           7           8           8
           8           8           9           9           9           9
          10          10          10          10          11          11
          11          11          12          12          12          12
          13          13          13          13          14          14
          14          14          15          15          15          15
          16          16          16          16          17          17
          18          18          19          19          20          20
          21          21          22          22          23          23
          24          24          25          25          26          26
          27          27          28          28          29          29
Primitive exponents                        R   N=         228
  5.48467166E+03  8.25234946E+02  1.88046958E+02  5.29645000E+01  1.68975704E+01
  5.79963534E+00  1.55396162E+01  3.59993359E+00  1.01376175E+00  2.70005823E-01
  8.00000000E-01  5.48467166E+03  8.25234946E+02  1.88046958E+02  5.29645000E+01
  1.68975704E+01  5.79963534E+00  1.55396162E+01  3.59993359E+00  1.01376175E+00
  2.70005823E-01  8.00000000E-01  5.48467166E+03  8.25234946E+02  1.88046958E+02
  5.29645000E+01  1.68975704E+01  5.79963534E+00  1.55396162E+01  3.59993359E+00
  1.01376175E+00  2.70005823E-01  8.00000000E-01  5.48467166E+03  8.25234946E+02
  1.88046958E+02  5.29645000E+01  1.68975704E+01  5.79963534E+00  1.55396162E+01
  3.59993359E+00  1.01376175E+00  2.70005823E-01  8.00000000E-01  4.17351146E+03
  6.27457911E+02  1.42902093E+02  4.02343293E+01  1.28202129E+01  4.39043701E+00
  1.16263619E+01  2.71627981E+00  7.72218397E-01  2.12031498E-01  8.00000000E-01
  4.17351146E+03  6.27457911E+02  1.42902093E+02  4.02343293E+01  1.28202129E+01
  4.39043701E+00  1.16263619E+01  2.71627981E+00  7.72218397E-01  2.12031498E-01
  8.00000000E-01  4.17351146E+03  6.27457911E+02  1.42902093E+02  4.02343293E+01
  1.28202129E+01  4.39043701E+00  1.16263619E+01  2.71627981E+00  7.72218397E-01
  2.12031498E-01  8.00000000E-01  3.04752488E+03  4.57369518E+02  1.03948685E+02
  2.92101553E+01  9.28666296E+00  3.16392696E+00  7.86827235E+00  1.88128854E+00
  5.44249258E-01  1.68714478E-01  8.00000000E-01  3.04752488E+03  4.57369518E+02
  1.03948685E+02  2.92101553E+01  9.28666296E+00  3.16392696E+00  7.86827235E+00
  1.88128854E+00  5.44249258E-01  1.68714478E-01  8.00000000E-01  3.04752488E+03
  4.57369518E+02  1.03948685E+02  2.92101553E+01  9.28666296E+00  3.16392696E+00
  7.86827235E+00  1.88128854E+00  5.44249258E-01  1.68714478E-01  8.00000000E-01
  3.04752488E+03  4.57369518E+02  1.03948685E+02  2.92101553E+01  9.28666296E+00
  3.16392696E+00  7.86827235E+00  1.88128854E+00  5.44249258E-01  1.68714478E-01
  8.00000000E-01  3.04752488E+03  4.57369518E+02  1.03948685E+02  2.92101553E+01
  9.28666296E+00  3.16392696E+00  7.86827235E+00  1.88128854E+00  5.44249258E-01
  1.68714478E-01  8.00000000E-01  3.04752488E+03  4.57369518E+02  1.03948685E+02
  2.92101553E+01  9.28666296E+00  3.16392696E+00  7.86827235E+00  1.88128854E+00
  5.44249258E-01  1.68714478E-01  8.00000000E-01  3.04752488E+03  4.57369518E+02
  1.03948685E+02  2.92101553E+01  9.28666296E+00  3.16392696E+00  7.86827235E+00
  1.88128854E+00  5.44249258E-01  1.68714478E-01  8.00000000E-01  3.04752488E+03
  4.57369518E+02  1.03948685E+02  2.92101553E+01  9.28666296E+00  3.16392696E+00
  7.86827235E+00  1.88128854E+00  5.44249258E-01  1.68714478E-01  8.00000000E-01
  3.04752488E+03  4.57369518E+02  1.03948685E+02  2.92101553E+01  9.28666296E+00
  3.16392696E+00  7.86827235E+00  1.88128854E+00  5.44249258E-01  1.68714478E-01
  8.00000000E-01  1.87311370E+01  2.82539436E+00  6.40121692E-01  1.61277759E-01
  1.87311370E+01  2.82539436E+00  6.40121692E-01  1.61277759E-01  1.87311370E+01
  2.82539436E+00  6.40121692E-01  1.61277759E-01  1.87311370E+01  2.82539436E+00
  6.40121692E-01  1.61277759E-01  1.87311370E+01  2.82539436E+00  6.40121692E-01
  1.61277759E-01  1.87311370E+01  2.82539436E+00  6.40121692E-01  1.61277759E-01
  1.87311370E+01  2.82539436E+00  6.40121692E-01  1.61277759E-01  1.87311370E+01
  2.82539436E+00  6.40121692E-01  1.61277759E-01  1.87311370E+01  2.82539436E+00
  6.40121692E-01  1.61277759E-01  1.87311370E+01  2.82539436E+00  6.40121692E-01
  1.61277759E-01  1.87311370E+01  2.82539436E+00  6.40121692E-01  1.61277759E-01
  1.87311370E+01  2.82539436E+00  6.40121692E-01  1.61277759E-01  1.87311370E+01
  2.82539436E+00  6.40121692E-01  1.61277759E-01
Contraction coefficients                   R   N=         228
  1.83107443E-03  1.39501722E-02  6.84450781E-02  2.32714336E-01  4.70192898E-01
  3.58520853E-01 -1.10777550E-01 -1.48026263E-01  1.13076702E+00  1.00000000E+00
  1.00000000E+00  1.83107443E-03  1.39501722E-02  6.84450781E-02  2.32714336E-01
  4.70192898E-01  3.58520853E-01 -1.10777550E-01 -1.48026263E-01  1.13076702E+00
  1.00000000E+00  1.00000000E+00  1.83107443E-03  1.39501722E-02  6.84450781E-02
  2.32714336E-01  4.70192898E-01  3.58520853E-01 -1.10777550E-01 -1.48026263E-01
  1.13076702E+00  1.00000000E+00  1.00000000E+00  1.83107443E-03  1.39501722E-02
  6.84450781E-02  2.32714336E-01  4.70192898E-01  3.58520853E-01 -1.10777550E-01
 -1.48026263E-01  1.13076702E+00  1.00000000E+00  1.00000000E+00  1.83477216E-03
  1.39946270E-02  6.85865518E-02  2.32240873E-01  4.69069948E-01  3.60455199E-01
 -1.14961182E-01 -1.69117479E-01  1.14585195E+00  1.00000000E+00  1.00000000E+00
  1.83477216E-03  1.39946270E-02  6.85865518E-02  2.32240873E-01  4.69069948E-01
  3.60455199E-01 -1.14961182E-01 -1.69117479E-01  1.14585195E+00  1.00000000E+00
  1.00000000E+00  1.83477216E-03  1.39946270E-02  6.85865518E-02  2.32240873E-01
  4.69069948E-01  3.60455199E-01 -1.14961182E-01 -1.69117479E-01  1.14585195E+00
  1.00000000E+00  1.00000000E+00  1.83473713E-03  1.40373228E-02  6.88426223E-02
  2.32184443E-01  4.67941348E-01  3.62311985E-01 -1.19332420E-01 -1.60854152E-01
  1.14345644E+00  1.00000000E+00  1.00000000E+00  1.83473713E-03  1.40373228E-02
  6.88426223E-02  2.32184443E-01  4.67941348E-01  3.62311985E-01 -1.19332420E-01
 -1.60854152E-01  1.14345644E+00  1.00000000E+00  1.00000000E+00  1.83473713E-03
  1.40373228E-02  6.88426223E-02  2.32184443E-01  4.67941348E-01  3.62311985E-01
 -1.19332420E-01 -1.60854152E-01  1.14345644E+00  1.00000000E+00  1.00000000E+00
  1.83473713E-03  1.40373228E-02  6.88426223E-02  2.32184443E-01  4.67941348E-01
  3.62311985E-01 -1.19332420E-01 -1.60854152E-01  1.14345644E+00  1.00000000E+00
  1.00000000E+00  1.83473713E-03  1.40373228E-02  6.88426223E-02  2.32184443E-01
  4.67941348E-01  3.62311985E-01 -1.19332420E-01 -1.60854152E-01  1.14345644E+00
  1.00000000E+00  1.00000000E+00  1.83473713E-03  1.40373228E-02  6.88426223E-02
  2.32184443E-01  4.67941348E-01  3.62311985E-01 -1.19332420E-01 -1.60854152E-01
  1.14345644E+00  1.00000000E+00  1.00000000E+00  1.83473713E-03  1.40373228E-02
  6.88426223E-02  2.32184443E-01  4.67941348E-01  3.62311985E-01 -1.19332420E-01
 -1.60854152E-01  1.14345644E+00  1.00000000E+00  1.00000000E+00  1.83473713E-03
  1.40373228E-02  6.88426223E-02  2.32184443E-01  4.67941348E-01  3.62311985E-01
 -1.19332420E-01 -1.60854152E-01  1.14345644E+00  1.00000000E+00  1.00000000E+00
  1.83473713E-03  1.40373228E-02  6.88426223E-02  2.32184443E-01  4.67941348E-01
  3.62311985E-01 -1.19332420E-01 -1.60854152E-01  1.14345644E+00  1.00000000E+00
  1.00000000E+00  3.34946043E-02  2.34726953E-01  8.13757326E-01  1.00000000E+00
  3.34946043E-02  2.34726953E-01  8.13757326E-01  1.00000000E+00  3.34946043E-02
  2.34726953E-01  8.13757326E-01  1.00000000E+00  3.34946043E-02  2.34726953E-01
  8.13757326E-01  1.00000000E+00  3.34946043E-02  2.34726953E-01  8.13757326E-01
  1.00000000E+00  3.34946043E-02  2.34726953E-01  8.13757326E-01  1.00000000E+00
  3.34946043E-02  2.34726953E-01  8.13757326E-01  1.00000000E+00  3.34946043E-02
  2.34726953E-01  8.13757326E-01  1.00000000E+00  3.34946043E-02  2.34726953E-01
  8.13757326E-01  1.00000000E+00  3.34946043E-02  2.34726953E-01  8.13757326E-01
  1.00000000E+00  3.34946043E-02  2.34726953E-01  8.13757326E-01  1.00000000E+00
  3.34946043E-02  2.34726953E-01  8.13757326E-01  1.00000000E+00  3.34946043E-02
  2.34726953E-01  8.13757326E-01  1.00000000E+00
P(S=P) Contraction coefficients            R   N=         228
  0.00000000E+00  0.00000000E+00  0.00000000E+00  0.00000000E+00  0.00000000E+00
  0.00000000E+00  7.08742682E-02  3.39752839E-01  7.27158577E-01  1.00000000E+00
  0.00000000E+00  0.00000000E+00  0.00000000E+00  0.00000000E+00  0.00000000E+00
  0.00000000E+00  0.00000000E+00  7.08742682E-02  3.39752839E-01  7.27158577E-01
  1.00000000E+00  0.00000000E+00  0.00000000E+00  0.00000000E+00  0.00000000E+00
  0.00000000E+00  0.00000000E+00  0.00000000E+00  7.08742682E-02  3.39752839E-01
  7.27158577E-01  1.00000000E+00  0.00000000E+00  0.00000000E+00  0.00000000E+00
  0.00000000E+00  0.00000000E+00  0.00000000E+00  0.00000000E+00  7.08742682E-02
  3.39752839E-01  7.27158577E-01  1.00000000E+00  0.00000000E+00  0.00000000E+00
  0.00000000E+00  0.00000000E+00  0.00000000E+00  0.00000000E+00  0.00000000E+00
  6.75797439E-02  3.23907296E-01  7.40895140E-01  1.00000000E+00  0.00000000E+00
  0.00000000E+00  0.00000000E+00  0.00000000E+00  0.00000000E+00  0.00000000E+00
  0.00000000E+00  6.75797439E-02  3.23907296E-01  7.40895140E-01  1.00000000E+00
  0.00000000E+00  0.00000000E+00  0.00000000E+00  0.00000000E+00  0.00000000E+00
  0.00000000E+00  0.00000000E+00  6.75797439E-02  3.23907296E-01  7.40895140E-01
  1.00000000E+00  0.00000000E+00  0.00000000E+00  0.00000000E+00  0.00000000E+00
  0.00000000E+00  0.00000000E+00  0.00000000E+00  6.89990666E-02  3.16423961E-01
  7.44308291E-01  1.00000000E+00  0.00000000E+00  0.00000000E+00  0.00000000E+00
  0.00000000E+00  0.00000000E+00  0.00000000E+00  0.00000000E+00  6.89990666E-02
  3.16423961E-01  7.44308291E-01  1.00000000E+00  0.00000000E+00  0.00000000E+00
  0.00000000E+00  0.00000000E+00  0.00000000E+00  0.00000000E+00  0.00000000E+00
  6.89990666E-02  3.16423961E-01  7.44308291E-01  1.00000000E+00  0.00000000E+00
  0.00000000E+00  0.00000000E+00  0.00000000E+00  0.00000000E+00  0.00000000E+00
  0.00000000E+00  6.89990666E-02  3.16423961E-01  7.44308291E-01  1.00000000E+00
  0.00000000E+00  0.00000000E+00  0.00000000E+00  0.00000000E+00  0.00000000E+00
  0.00000000E+00  0.00000000E+00  6.89990666E-02  3.16423961E-01  7.44308291E-01
  1.00000000E+00  0.00000000E+00  0.00000000E+00  0.00000000E+00  0.00000000E+00
  0.00000000E+00  0.00000000E+00  0.00000000E+00  6.89990666E-02  3.16423961E-01
  7.44308291E-01  1.00000000E+00  0.00000000E+00  0.00000000E+00  0.00000000E+00
  0.00000000E+00  0.00000000E+00  0.00000000E+00  0.00000000E+00  6.89990666E-02
  3.16423961E-01  7.44308291E-01  1.00000000E+00  0.00000000E+00  0.00000000E+00
  0.00000000E+00  0.00000000E+00  0.00000000E+00  0.00000000E+00  0.00000000E+00
  6.89990666E-02  3.16423961E-01  7.44308291E-01  1.00000000E+00  0.00000000E+00
  0.00000000E+00  0.00000000E+00  0.00000000E+00  0.00000000E+00  0.00000000E+00
  0.00000000E+00  6.89990666E-02  3.16423961E-01  7.44308291E-01  1.00000000E+00
  0.00000000E+00  0.00000000E+00  0.00000000E+00  0.00000000E+00  0.00000000E+00
  0.00000000E+00  0.00000000E+00  0.00000000E+00  0.00000000E+00  0.00000000E+00
  0.00000000E+00  0.00000000E+00  0.00000000E+00  0.00000000E+00  0.00000000E+00
  0.00000000E+00  0.00000000E+00  0.00000000E+00  0.00000000E+00  0.00000000E+00
  0.00000000E+00  0.00000000E+00  0.00000000E+00  0.00000000E+00  0.00000000E+00
  0.00000000E+00  0.00000000E+00  0.00000000E+00  0.00000000E+00  0.00000000E+00
  0.00000000E+00  0.00000000E+00  0.00000000E+00  0.00000000E+00  0.00000000E+00
  0.00000000E+00  0.00000000E+00  0.00000000E+00  0.00000000E+00  0.00000000E+00
  0.00000000E+00  0.00000000E+00  0.00000000E+00  0.00000000E+00  0.00000000E+00
  0.00000000E+00  0.00000000E+00  0.00000000E+00  0.00000000E+00  0.00000000E+00
  0.00000000E+00  0.00000000E+00  0.00000000E+00
Coordinates of each shell                  R   N=         270
 -2.77697782E+00  5.72702026E-01 -2.05497839E+00 -2.77697782E+00  5.72702026E-01
 -2.05497839E+00 -2.77697782E+00  5.72702026E-01 -2.05497839E+00 -2.77697782E+00
  5.72702026E-01 -2.05497839E+00 -6.88548128E+00 -2.68417491E+00 -5.04435298E-01
 -6.88548128E+00 -2.68417491E+00 -5.04435298E-01 -6.88548128E+00 -2.68417491E+00
 -5.04435298E-01 -6.88548128E+00 -2.68417491E+00 -5.04435298E-01 -3.19577886E+00
  5.39256777E+00  5.87238443E-06 -3.19577886E+00  5.39256777E+00  5.87238443E-06
 -3.19577886E+00  5.39256777E+00  5.87238443E-06 -3.19577886E+00  5.39256777E+00
  5.87238443E-06  2.24079401E+00 -4.71700426E+00  1.65266305E-01  2.24079401E+00
 -4.71700426E+00  1.65266305E-01  2.24079401E+00 -4.71700426E+00  1.65266305E-01
  2.24079401E+00 -4.71700426E+00  1.65266305E-01  1.29304200E+00 -5.95317632E-01
 -6.42372874E-01  1.29304200E+00 -5.95317632E-01 -6.42372874E-01  1.29304200E+00
 -5.95317632E-01 -6.42372874E-01  1.29304200E+00 -5.95317632E-01 -6.42372874E-01
  5.50548328E+00 -1.82308954E+00  3.98432186E-01  5.50548328E+00 -1.82308954E+00
  3.98432186E-01  5.50548328E+00 -1.82308954E+00  3.98432186E-01  5.50548328E+00
 -1.82308954E+00  3.98432186E-01  8.62409991E+00  1.16763694E+00  7.15305400E-01
  8.62409991E+00  1.16763694E+00  7.15305400E-01  8.62409991E+00  1.16763694E+00
  7.15305400E-01  8.62409991E+00  1.16763694E+00  7.15305400E-01 -5.23205154E+00
 -1.29606241E+00  1.10796372E+00 -5.23205154E+00 -1.29606241E+00  1.10796372E+00
 -5.23205154E+00 -1.29606241E+00  1.10796372E+00 -5.23205154E+00 -1.29606241E+00
  1.10796372E+00 -2.60551223E+00 -2.47902726E+00  1.24118290E+00 -2.60551223E+00
 -2.47902726E+00  1.24118290E+00 -2.60551223E+00 -2.47902726E+00  1.24118290E+00
 -2.60551223E+00 -2.47902726E+00  1.24118290E+00 -4.71019583E+00  1.18741760E+00
 -2.44878143E-01 -4.71019583E+00  1.18741760E+00 -2.44878143E-01 -4.71019583E+00
  1.18741760E+00 -2.44878143E-01 -4.71019583E+00  1.18741760E+00 -2.44878143E-01
 -1.31135445E+00 -1.47504368E+00 -1.15569491E+00 -1.31135445E+00 -1.47504368E+00
 -1.15569491E+00 -1.31135445E+00 -1.47504368E+00 -1.15569491E+00 -1.31135445E+00
 -1.47504368E+00 -1.15569491E+00 -3.85771009E+00  3.27392411E+00  1.52829237E+00
 -3.85771009E+00  3.27392411E+00  1.52829237E+00 -3.85771009E+00  3.27392411E+00
  1.52829237E+00 -3.85771009E+00  3.27392411E+00  1.52829237E+00  1.99272243E+00
  1.85917508E+00 -9.23720543E-01  1.99272243E+00  1.85917508E+00 -9.23720543E-01
  1.99272243E+00  1.85917508E+00 -9.23720543E-01  1.99272243E+00  1.85917508E+00
 -9.23720543E-01  3.03883623E+00 -2.52938813E+00  2.00945264E-03  3.03883623E+00
 -2.52938813E+00  2.00945264E-03  3.03883623E+00 -2.52938813E+00  2.00945264E-03
  3.03883623E+00 -2.52938813E+00  2.00945264E-03  4.43850287E+00  2.54698782E+00
 -4.95643034E-01  4.43850287E+00  2.54698782E+00 -4.95643034E-01  4.43850287E+00
  2.54698782E+00 -4.95643034E-01  4.43850287E+00  2.54698782E+00 -4.95643034E-01
  6.15645831E+00  5.75634979E-01  1.65595739E-01  6.15645831E+00  5.75634979E-01
  1.65595739E-01  6.15645831E+00  5.75634979E-01  1.65595739E-01  6.15645831E+00
  5.75634979E-01  1.65595739E-01 -6.08276474E+00 -1.01700394E+00  2.98542792E+00
 -6.08276474E+00 -1.01700394E+00  2.98542792E+00 -1.57635092E+00 -1.85227895E+00
  2.92229679E+00 -1.57635092E+00 -1.85227895E+00  2.92229679E+00 -2.63619325E+00
 -4.54160761E+00  1.27650491E+00 -2.63619325E+00 -4.54160761E+00  1.27650491E+00
 -1.18354032E+00 -2.90723951E+00 -2.63964938E+00 -1.18354032E+00 -2.90723951E+00
 -2.63964938E+00 -6.34787523E+00  1.82198387E+00 -1.33377778E+00 -6.34787523E+00
  1.82198387E+00 -1.33377778E+00 -2.23925192E+00  2.63424943E+00  2.66416147E+00
 -2.23925192E+00  2.63424943E+00  2.66416147E+00 -5.41744846E+00  3.73091497E+00
  2.82480996E+00 -5.41744846E+00  3.73091497E+00  2.82480996E+00 -6.97411049E+00
 -4.40202024E+00  1.46378508E-01 -6.97411049E+00 -4.40202024E+00  1.46378508E-01
  5.04220222E-01  3.16533759E+00 -1.45646932E+00  5.04220222E-01  3.16533759E+00
 -1.45646932E+00 -2.70628673E+00  6.75784283E+00  1.12860731E+00 -2.70628673E+00
  6.75784283E+00  1.12860731E+00  5.03066846E+00  4.49939200E+00 -6.79626730E-01
  5.03066846E+00  4.49939200E+00 -6.79626730E-01  9.36368833E+00  2.72434622E+00
 -1.11820603E-01  9.36368833E+00  2.72434622E+00 -1.11820603E-01  9.78824597E+00
 -3.52958573E-01  7.76090749E-01  9.78824597E+00 -3.52958573E-01  7.76090749E-01
Constraint Structure                       R   N=          87
 -2.77697782E+00  5.72702026E-01 -2.05497839E+00 -6.88548128E+00 -2.68417491E+00
 -5.04435298E-01 -3.19577886E+00  5.39256777E+00  5.87238443E-06  2.24079401E+00
 -4.71700426E+00  1.65266305E-01  1.29304200E+00 -5.95317632E-01 -6.42372874E-01
  5.50548328E+00 -1.82308954E+00  3.98432186E-01  8.62409991E+00  1.16763694E+00
  7.15305400E-01 -5.23205154E+00 -1.29606241E+00  1.10796372E+00 -2.60551223E+00
 -2.47902726E+00  1.24118290E+00 -4.71019583E+00  1.18741760E+00 -2.44878143E-01
 -1.31135445E+00 -1.47504368E+00 -1.15569491E+00 -3.85771009E+00  3.27392411E+00
  1.52829237E+00  1.99272243E+00  1.85917508E+00 -9.23720543E-01  3.03883623E+00
 -2.52938813E+00  2.00945264E-03  4.43850287E+00  2.54698782E+00 -4.95643034E-01
  6.15645831E+00  5.75634979E-01  1.65595739E-01 -6.08276474E+00 -1.01700394E+00
  2.98542792E+00 -1.57635092E+00 -1.85227895E+00  2.92229679E+00 -2.63619325E+00
 -4.54160761E+00  1.27650491E+00 -1.18354032E+00 -2.90723951E+00 -2.63964938E+00
 -6.34787523E+00  1.82198387E+00 -1.33377778E+00 -2.23925192E+00  2.63424943E+00
  2.66416147E+00 -5.41744846E+00  3.73091497E+00  2.82480996E+00 -6.97411049E+00
 -4.40202024E+00  1.46378508E-01  5.04220222E-01  3.16533759E+00 -1.45646932E+00
 -2.70628673E+00  6.75784283E+00  1.12860731E+00  5.03066846E+00  4.49939200E+00
 -6.79626730E-01  9.36368833E+00  2.72434622E+00 -1.11820603E-01  9.78824597E+00
 -3.52958573E-01  7.76090749E-01
Num ILSW                                   I              100
ILSW                                       I   N=         100
           0           1           0           1           2           0
           0           0           0           0           0          -1
           0           0           0           0           0           0