10970                                                                   
Freq      RMP2-FC                                                     6-31G(d)            
Number of atoms                            I               12
Info1-9                                    I   N=           9
          24          22        1002           0           0         100
           6           2           1
Charge                                     I                0
Multiplicity                               I                1
Number of electrons                        I               78
Number of alpha electrons                  I               39
Number of beta electrons                   I               39
Number of basis functions                  I              136
Number of independent functions            I              136
Number of point charges in /Mol/           I                0
Number of translation vectors              I                0
Atomic numbers                             I   N=          12
          17          17           8           8           6           6
           6           6           1           1           1           1
Nuclear charges                            R   N=          12
  1.70000000E+01  1.70000000E+01  8.00000000E+00  8.00000000E+00  6.00000000E+00
  6.00000000E+00  6.00000000E+00  6.00000000E+00  1.00000000E+00  1.00000000E+00
  1.00000000E+00  1.00000000E+00
Current cartesian coordinates              R   N=          36
 -6.38018034E+00  8.91143228E-01  7.63619390E-05  6.38017966E+00 -8.91144283E-01
 -9.47885041E-05 -3.52661452E+00 -3.15656161E+00 -3.78679423E-04  3.52661666E+00
  3.15656219E+00  3.89327228E-04 -1.20259052E+00  7.87564401E-01  1.00771751E-04
  1.20258971E+00 -7.87563105E-01 -7.95095377E-05 -3.50338372E+00 -8.82399839E-01
 -1.10587535E-04  3.50338417E+00  8.82400466E-01  1.18618907E-04 -1.29436226E+00
  2.03412041E+00 -1.64888097E+00 -1.29437628E+00  2.03372203E+00  1.64938320E+00
  1.29437019E+00 -2.03372763E+00 -1.64935683E+00  1.29436492E+00 -2.03411304E+00
  1.64890691E+00
Force Field                                I                0
Int Atom Types                             I   N=          12
           0           0           0           0           0           0
           0           0           0           0           0           0
MM charges                                 R   N=          12
  0.00000000E+00  0.00000000E+00  0.00000000E+00  0.00000000E+00  0.00000000E+00
  0.00000000E+00  0.00000000E+00  0.00000000E+00  0.00000000E+00  0.00000000E+00
  0.00000000E+00  0.00000000E+00
Integer atomic weights                     I   N=          12
          35          35          16          16          12          12
          12          12           1           1           1           1
Real atomic weights                        R   N=          12
  3.49688527E+01  3.49688527E+01  1.59949146E+01  1.59949146E+01  1.20000000E+01
  1.20000000E+01  1.20000000E+01  1.20000000E+01  1.00782504E+00  1.00782504E+00
  1.00782504E+00  1.00782504E+00
Atom fragment info                         I   N=          12
           0           0           0           0           0           0
           0           0           0           0           0           0
Atom residue num                           I   N=          12
           0           0           0           0           0           0
           0           0           0           0           0           0
Nuclear spins                              I   N=          12
           3           3           0           0           0           0
           0           0           1           1           1           1
Nuclear ZEff                               R   N=          12
 -1.42400000E+01 -1.42400000E+01 -5.60000000E+00 -5.60000000E+00 -3.60000000E+00
 -3.60000000E+00 -3.60000000E+00 -3.60000000E+00 -1.00000000E+00 -1.00000000E+00
 -1.00000000E+00 -1.00000000E+00
Nuclear QMom                               R   N=          12
 -8.16500000E+00 -8.16500000E+00  0.00000000E+00  0.00000000E+00  0.00000000E+00
  0.00000000E+00  0.00000000E+00  0.00000000E+00  0.00000000E+00  0.00000000E+00
  0.00000000E+00  0.00000000E+00
Nuclear GFac                               R   N=          12
  8.21874000E-01  8.21874000E-01  0.00000000E+00  0.00000000E+00  0.00000000E+00
  0.00000000E+00  0.00000000E+00  0.00000000E+00  2.79284600E+00  2.79284600E+00
  2.79284600E+00  2.79284600E+00
MicOpt                                     I   N=          12
          -1          -1          -1          -1          -1          -1
          -1          -1          -1          -1          -1          -1
Number of contracted shells                I               42
Number of primitive shells                 I              116
Pure/Cartesian d shells                    I                1
Pure/Cartesian f shells                    I                0
Highest angular momentum                   I                2
Largest degree of contraction              I                6
Shell types                                I   N=          42
           0          -1          -1          -1           2           0
          -1          -1          -1           2           0          -1
          -1           2           0          -1          -1           2
           0          -1          -1           2           0          -1
          -1           2           0          -1          -1           2
           0          -1          -1           2           0           0
           0           0           0           0           0           0
Number of primitives per shell             I   N=          42
           6           6           3           1           1           6
           6           3           1           1           6           3
           1           1           6           3           1           1
           6           3           1           1           6           3
           1           1           6           3           1           1
           6           3           1           1           3           1
           3           1           3           1           3           1
Shell to atom map                          I   N=          42
           1           1           1           1           1           2
           2           2           2           2           3           3
           3           3           4           4           4           4
           5           5           5           5           6           6
           6           6           7           7           7           7
           8           8           8           8           9           9
          10          10          11          11          12          12
Primitive exponents                        R   N=         116
  2.51801000E+04  3.78035000E+03  8.60474000E+02  2.42145000E+02  7.73349000E+01
  2.62470000E+01  4.91765000E+02  1.16984000E+02  3.74153000E+01  1.37834000E+01
  5.45215000E+00  2.22588000E+00  3.18649000E+00  1.14427000E+00  4.20377000E-01
  1.42657000E-01  7.50000000E-01  2.51801000E+04  3.78035000E+03  8.60474000E+02
  2.42145000E+02  7.73349000E+01  2.62470000E+01  4.91765000E+02  1.16984000E+02
  3.74153000E+01  1.37834000E+01  5.45215000E+00  2.22588000E+00  3.18649000E+00
  1.14427000E+00  4.20377000E-01  1.42657000E-01  7.50000000E-01  5.48467166E+03
  8.25234946E+02  1.88046958E+02  5.29645000E+01  1.68975704E+01  5.79963534E+00
  1.55396162E+01  3.59993359E+00  1.01376175E+00  2.70005823E-01  8.00000000E-01
  5.48467166E+03  8.25234946E+02  1.88046958E+02  5.29645000E+01  1.68975704E+01
  5.79963534E+00  1.55396162E+01  3.59993359E+00  1.01376175E+00  2.70005823E-01
  8.00000000E-01  3.04752488E+03  4.57369518E+02  1.03948685E+02  2.92101553E+01
  9.28666296E+00  3.16392696E+00  7.86827235E+00  1.88128854E+00  5.44249258E-01
  1.68714478E-01  8.00000000E-01  3.04752488E+03  4.57369518E+02  1.03948685E+02
  2.92101553E+01  9.28666296E+00  3.16392696E+00  7.86827235E+00  1.88128854E+00
  5.44249258E-01  1.68714478E-01  8.00000000E-01  3.04752488E+03  4.57369518E+02
  1.03948685E+02  2.92101553E+01  9.28666296E+00  3.16392696E+00  7.86827235E+00
  1.88128854E+00  5.44249258E-01  1.68714478E-01  8.00000000E-01  3.04752488E+03
  4.57369518E+02  1.03948685E+02  2.92101553E+01  9.28666296E+00  3.16392696E+00
  7.86827235E+00  1.88128854E+00  5.44249258E-01  1.68714478E-01  8.00000000E-01
  1.87311370E+01  2.82539436E+00  6.40121692E-01  1.61277759E-01  1.87311370E+01
  2.82539436E+00  6.40121692E-01  1.61277759E-01  1.87311370E+01  2.82539436E+00
  6.40121692E-01  1.61277759E-01  1.87311370E+01  2.82539436E+00  6.40121692E-01
  1.61277759E-01
Contraction coefficients                   R   N=         116
  1.83295985E-03  1.40341988E-02  6.90973943E-02  2.37451980E-01  4.83033960E-01
  3.39855972E-01 -2.29739142E-03 -3.07137189E-02 -1.12528069E-01  4.50163278E-02
  5.89353363E-01  4.65206287E-01 -2.51828028E-01  6.15892514E-02  1.06018433E+00
  1.00000000E+00  1.00000000E+00  1.83295985E-03  1.40341988E-02  6.90973943E-02
  2.37451980E-01  4.83033960E-01  3.39855972E-01 -2.29739142E-03 -3.07137189E-02
 -1.12528069E-01  4.50163278E-02  5.89353363E-01  4.65206287E-01 -2.51828028E-01
  6.15892514E-02  1.06018433E+00  1.00000000E+00  1.00000000E+00  1.83107443E-03
  1.39501722E-02  6.84450781E-02  2.32714336E-01  4.70192898E-01  3.58520853E-01
 -1.10777550E-01 -1.48026263E-01  1.13076702E+00  1.00000000E+00  1.00000000E+00
  1.83107443E-03  1.39501722E-02  6.84450781E-02  2.32714336E-01  4.70192898E-01
  3.58520853E-01 -1.10777550E-01 -1.48026263E-01  1.13076702E+00  1.00000000E+00
  1.00000000E+00  1.83473713E-03  1.40373228E-02  6.88426223E-02  2.32184443E-01
  4.67941348E-01  3.62311985E-01 -1.19332420E-01 -1.60854152E-01  1.14345644E+00
  1.00000000E+00  1.00000000E+00  1.83473713E-03  1.40373228E-02  6.88426223E-02
  2.32184443E-01  4.67941348E-01  3.62311985E-01 -1.19332420E-01 -1.60854152E-01
  1.14345644E+00  1.00000000E+00  1.00000000E+00  1.83473713E-03  1.40373228E-02
  6.88426223E-02  2.32184443E-01  4.67941348E-01  3.62311985E-01 -1.19332420E-01
 -1.60854152E-01  1.14345644E+00  1.00000000E+00  1.00000000E+00  1.83473713E-03
  1.40373228E-02  6.88426223E-02  2.32184443E-01  4.67941348E-01  3.62311985E-01
 -1.19332420E-01 -1.60854152E-01  1.14345644E+00  1.00000000E+00  1.00000000E+00
  3.34946043E-02  2.34726953E-01  8.13757326E-01  1.00000000E+00  3.34946043E-02
  2.34726953E-01  8.13757326E-01  1.00000000E+00  3.34946043E-02  2.34726953E-01
  8.13757326E-01  1.00000000E+00  3.34946043E-02  2.34726953E-01  8.13757326E-01
  1.00000000E+00
P(S=P) Contraction coefficients            R   N=         116
  0.00000000E+00  0.00000000E+00  0.00000000E+00  0.00000000E+00  0.00000000E+00
  0.00000000E+00  3.98940088E-03  3.03177067E-02  1.29880029E-01  3.27951072E-01
  4.53527100E-01  2.52154056E-01 -1.42993147E-02  3.23572333E-01  7.43507765E-01
  1.00000000E+00  0.00000000E+00  0.00000000E+00  0.00000000E+00  0.00000000E+00
  0.00000000E+00  0.00000000E+00  0.00000000E+00  3.98940088E-03  3.03177067E-02
  1.29880029E-01  3.27951072E-01  4.53527100E-01  2.52154056E-01 -1.42993147E-02
  3.23572333E-01  7.43507765E-01  1.00000000E+00  0.00000000E+00  0.00000000E+00
  0.00000000E+00  0.00000000E+00  0.00000000E+00  0.00000000E+00  0.00000000E+00
  7.08742682E-02  3.39752839E-01  7.27158577E-01  1.00000000E+00  0.00000000E+00
  0.00000000E+00  0.00000000E+00  0.00000000E+00  0.00000000E+00  0.00000000E+00
  0.00000000E+00  7.08742682E-02  3.39752839E-01  7.27158577E-01  1.00000000E+00
  0.00000000E+00  0.00000000E+00  0.00000000E+00  0.00000000E+00  0.00000000E+00
  0.00000000E+00  0.00000000E+00  6.89990666E-02  3.16423961E-01  7.44308291E-01
  1.00000000E+00  0.00000000E+00  0.00000000E+00  0.00000000E+00  0.00000000E+00
  0.00000000E+00  0.00000000E+00  0.00000000E+00  6.89990666E-02  3.16423961E-01
  7.44308291E-01  1.00000000E+00  0.00000000E+00  0.00000000E+00  0.00000000E+00
  0.00000000E+00  0.00000000E+00  0.00000000E+00  0.00000000E+00  6.89990666E-02
  3.16423961E-01  7.44308291E-01  1.00000000E+00  0.00000000E+00  0.00000000E+00
  0.00000000E+00  0.00000000E+00  0.00000000E+00  0.00000000E+00  0.00000000E+00
  6.89990666E-02  3.16423961E-01  7.44308291E-01  1.00000000E+00  0.00000000E+00
  0.00000000E+00  0.00000000E+00  0.00000000E+00  0.00000000E+00  0.00000000E+00
  0.00000000E+00  0.00000000E+00  0.00000000E+00  0.00000000E+00  0.00000000E+00
  0.00000000E+00  0.00000000E+00  0.00000000E+00  0.00000000E+00  0.00000000E+00
  0.00000000E+00
Coordinates of each shell                  R   N=         126
 -6.38018034E+00  8.91143228E-01  7.63619390E-05 -6.38018034E+00  8.91143228E-01
  7.63619390E-05 -6.38018034E+00  8.91143228E-01  7.63619390E-05 -6.38018034E+00
  8.91143228E-01  7.63619390E-05 -6.38018034E+00  8.91143228E-01  7.63619390E-05
  6.38017966E+00 -8.91144283E-01 -9.47885041E-05  6.38017966E+00 -8.91144283E-01
 -9.47885041E-05  6.38017966E+00 -8.91144283E-01 -9.47885041E-05  6.38017966E+00
 -8.91144283E-01 -9.47885041E-05  6.38017966E+00 -8.91144283E-01 -9.47885041E-05
 -3.52661452E+00 -3.15656161E+00 -3.78679423E-04 -3.52661452E+00 -3.15656161E+00
 -3.78679423E-04 -3.52661452E+00 -3.15656161E+00 -3.78679423E-04 -3.52661452E+00
 -3.15656161E+00 -3.78679423E-04  3.52661666E+00  3.15656219E+00  3.89327228E-04
  3.52661666E+00  3.15656219E+00  3.89327228E-04  3.52661666E+00  3.15656219E+00
  3.89327228E-04  3.52661666E+00  3.15656219E+00  3.89327228E-04 -1.20259052E+00
  7.87564401E-01  1.00771751E-04 -1.20259052E+00  7.87564401E-01  1.00771751E-04
 -1.20259052E+00  7.87564401E-01  1.00771751E-04 -1.20259052E+00  7.87564401E-01
  1.00771751E-04  1.20258971E+00 -7.87563105E-01 -7.95095377E-05  1.20258971E+00
 -7.87563105E-01 -7.95095377E-05  1.20258971E+00 -7.87563105E-01 -7.95095377E-05
  1.20258971E+00 -7.87563105E-01 -7.95095377E-05 -3.50338372E+00 -8.82399839E-01
 -1.10587535E-04 -3.50338372E+00 -8.82399839E-01 -1.10587535E-04 -3.50338372E+00
 -8.82399839E-01 -1.10587535E-04 -3.50338372E+00 -8.82399839E-01 -1.10587535E-04
  3.50338417E+00  8.82400466E-01  1.18618907E-04  3.50338417E+00  8.82400466E-01
  1.18618907E-04  3.50338417E+00  8.82400466E-01  1.18618907E-04  3.50338417E+00
  8.82400466E-01  1.18618907E-04 -1.29436226E+00  2.03412041E+00 -1.64888097E+00
 -1.29436226E+00  2.03412041E+00 -1.64888097E+00 -1.29437628E+00  2.03372203E+00
  1.64938320E+00 -1.29437628E+00  2.03372203E+00  1.64938320E+00  1.29437019E+00
 -2.03372763E+00 -1.64935683E+00  1.29437019E+00 -2.03372763E+00 -1.64935683E+00
  1.29436492E+00 -2.03411304E+00  1.64890691E+00  1.29436492E+00 -2.03411304E+00
  1.64890691E+00
Constraint Structure                       R   N=          36
 -6.38018034E+00  8.91143228E-01  7.63619390E-05  6.38017966E+00 -8.91144283E-01
 -9.47885041E-05 -3.52661452E+00 -3.15656161E+00 -3.78679423E-04  3.52661666E+00
  3.15656219E+00  3.89327228E-04 -1.20259052E+00  7.87564401E-01  1.00771751E-04
  1.20258971E+00 -7.87563105E-01 -7.95095377E-05 -3.50338372E+00 -8.82399839E-01
 -1.10587535E-04  3.50338417E+00  8.82400466E-01  1.18618907E-04 -1.29436226E+00
  2.03412041E+00 -1.64888097E+00 -1.29437628E+00  2.03372203E+00  1.64938320E+00
  1.29437019E+00 -2.03372763E+00 -1.64935683E+00  1.29436492E+00 -2.03411304E+00
  1.64890691E+00
Num ILSW                                   I              100
ILSW                                       I   N=         100
           0           1           0           0           2           0
           0           0           0           0           0          -1
           0           0           0           0           0           0
           0           0           0           0           1           0
           1           0           0           0           0           0
           0           0      100000           0          -1           0
           0           0           0           0           0           0
           0           0           0           1           1           0
           0           0           1           0           0           0
           0           0           4          40           0           0
           0           0           0           0           0           0
           0           0           0           0           0           0
           0           0           0           0           0           0
           0           0           0           0           0           0
           0           0           0           0           0           0
           0           0           0           0           0           0
           0           0           0           0
Num RLSW                                   I               40
RLSW                                       R   N=          40
  1.00000000E+00  1.00000000E+00  1.00000000E+00  1.00000000E+00  1.00000000E+00
  0.00000000E+00  0.00000000E+00  1.00000000E+00  0.00000000E+00  0.00000000E+00
  0.00000000E+00  0.00000000E+00  1.00000000E+00  0.00000000E+00  0.00000000E+00
  0.00000000E+00  0.00000000E+00  1.00000000E+00  0.00000000E+00  0.00000000E+00
  0.00000000E+00  0.00000000E+00  1.00000000E+00  0.00000000E+00  0.00000000E+00
  0.00000000E+00  0.00000000E+00  1.00000000E+00  0.00000000E+00  0.00000000E+00
  0.00000000E+00  0.00000000E+00  0.00000000E+00  0.00000000E+00  0.00000000E+00
  0.00000000E+00  0.00000000E+00  0.00000000E+00  1.00000000E+00  1.00000000E+00
MxBond                                     I                4
NBond                                      I   N=          12
           1           1           1           1           4           4
           3           3           1           1           1           1
IBond                                      I   N=          48
           7           0           0           0           8           0
           0           0           7           0           0           0
           8           0           0           0           6           7
           9          10           5           8          11          12
           1           3           5           0           2           4
           6           0           5           0           0           0
           5           0           0           0           6           0
           0           0           6           0           0           0
RBond                                      R   N=          48
  1.00000000E+00  0.00000000E+00  0.00000000E+00  0.00000000E+00  1.00000000E+00
  0.00000000E+00  0.00000000E+00  0.00000000E+00  2.00000000E+00  0.00000000E+00
  0.00000000E+00  0.00000000E+00  2.00000000E+00  0.00000000E+00  0.00000000E+00
  0.00000000E+00  1.00000000E+00  1.00000000E+00  1.00000000E+00  1.00000000E+00
  1.00000000E+00  1.00000000E+00  1.00000000E+00  1.00000000E+00  1.00000000E+00
  2.00000000E+00  1.00000000E+00  0.00000000E+00  1.00000000E+00  2.00000000E+00
  1.00000000E+00  0.00000000E+00  1.00000000E+00  0.00000000E+00  0.00000000E+00
  0.00000000E+00  1.00000000E+00  0.00000000E+00  0.00000000E+00  0.00000000E+00
  1.00000000E+00  0.00000000E+00  0.00000000E+00  0.00000000E+00  1.00000000E+00
  0.00000000E+00  0.00000000E+00  0.00000000E+00
Virial Ratio                               R      2.001041332831615E+00
SCF Energy                                 R     -1.222497862418720E+03
MP2 Energy                                 R     -1.223630269356938E+03
Total Energy                               R     -1.223630269356938E+03
Post-SCF wavefunction norm                 R      1.661593861996073E+00
RMS Force                                  R      3.922459729465658E-07
RMS Density                                R      1.046470286971258E-09
External E-field                           R   N=          35
  0.00000000E+00  0.00000000E+00  0.00000000E+00  0.00000000E+00  0.00000000E+00
  0.00000000E+00  0.00000000E+00  0.00000000E+00  0.00000000E+00  0.00000000E+00
  0.00000000E+00  0.00000000E+00  0.00000000E+00  0.00000000E+00  0.00000000E+00
  0.00000000E+00  0.00000000E+00  0.00000000E+00  0.00000000E+00  0.00000000E+00
  0.00000000E+00  0.00000000E+00  0.00000000E+00  0.00000000E+00  0.00000000E+00
  0.00000000E+00  0.00000000E+00  0.00000000E+00  0.00000000E+00  0.00000000E+00
  0.00000000E+00  0.00000000E+00  0.00000000E+00  0.00000000E+00  0.00000000E+00
IOpCl                                      I                0
IROHF                                      I                0
Alpha Orbital Energies                     R   N=         136
 -1.04848336E+02 -1.04848336E+02 -2.06206590E+01 -2.06206589E+01 -1.14318745E+01
 -1.14318728E+01 -1.12940062E+01 -1.12933877E+01 -1.05832121E+01 -1.05832113E+01
 -8.05236074E+00 -8.05235744E+00 -8.04913962E+00 -8.04913947E+00 -8.04890048E+00
 -8.04890037E+00 -1.45475301E+00 -1.45323254E+00 -1.16322298E+00 -1.15116293E+00
 -1.10767331E+00 -9.78210507E-01 -7.94052530E-01 -7.84022565E-01 -7.16192918E-01
 -7.01490871E-01 -6.89851986E-01 -6.56833342E-01 -6.53582074E-01 -6.24481422E-01
 -5.76451843E-01 -5.70805111E-01 -5.40272790E-01 -4.91972869E-01 -4.78268787E-01
 -4.77841434E-01 -4.75820722E-01 -4.66167831E-01 -4.65356664E-01  1.08686629E-01
  1.20111700E-01  1.61587370E-01  1.95546970E-01  2.07730374E-01  2.60153404E-01
  2.61595615E-01  3.21738942E-01  3.34797538E-01  3.79419485E-01  3.97715584E-01
  4.53458068E-01  4.62394681E-01  5.38566484E-01  5.66294026E-01  5.99462090E-01
  6.19962229E-01  6.26086176E-01  6.27328863E-01  6.29932435E-01  6.81585814E-01
  7.00210242E-01  7.35204400E-01  7.45177745E-01  7.58167748E-01  8.08770724E-01
  8.76972761E-01  8.78039671E-01  9.13413886E-01  9.18994651E-01  9.48925231E-01
  9.82369691E-01  1.01913177E+00  1.05728561E+00  1.06908207E+00  1.07556755E+00
  1.08460688E+00  1.08621819E+00  1.09739459E+00  1.12328079E+00  1.12977604E+00
  1.14466113E+00  1.15570884E+00  1.15754200E+00  1.17646856E+00  1.18599730E+00
  1.26535048E+00  1.27840511E+00  1.28380519E+00  1.31149707E+00  1.32855615E+00
  1.33630535E+00  1.36883725E+00  1.39489449E+00  1.45181895E+00  1.52421233E+00
  1.55566134E+00  1.79926832E+00  1.80237175E+00  1.81340078E+00  1.87599204E+00
  1.87678622E+00  1.92714511E+00  1.94669169E+00  1.97770434E+00  2.04636786E+00
  2.05529085E+00  2.11027813E+00  2.14605467E+00  2.18965506E+00  2.21235601E+00
  2.22026007E+00  2.28702000E+00  2.35632291E+00  2.42049231E+00  2.42178923E+00
  2.61942578E+00  2.62141882E+00  2.64317562E+00  2.74400489E+00  2.75617710E+00
  2.85834629E+00  2.88386541E+00  2.89674765E+00  3.02697120E+00  3.19253455E+00
  3.20628045E+00  3.29757988E+00  3.31813143E+00  4.29028727E+00  4.31379068E+00
  4.42969170E+00  4.52269309E+00  4.67867788E+00  4.72242656E+00  4.76624730E+00
  4.92145452E+00
Alpha MO coefficients                      R   N=       18496
  8.27296848E-01  1.21644103E-02  4.00632834E-05 -2.06763535E-05 -2.12237980E-09
 -1.47295213E-02 -4.73389684E-05  1.83378524E-05  1.81556345E-09  1.18915019E-03
  2.82372914E-05 -2.13498905E-05 -2.36077063E-09  5.19738006E-03  5.20763660E-03
  5.20175443E-03 -1.16329173E-06 -1.84909304E-10  7.90536763E-10  5.54822352E-01
  8.15804415E-03 -2.71454595E-05  1.39694196E-05  1.68678606E-09 -9.87773476E-03
  3.33334335E-05 -1.29369177E-05 -1.56101501E-09  7.90413739E-04 -1.48503875E-05
  1.32969062E-05  1.55395771E-09  3.48438782E-03  3.49275229E-03  3.48845331E-03
 -2.80404500E-07 -2.11143930E-11  5.86522110E-10 -8.62793708E-06 -3.57233486E-05
  1.75799828E-06 -1.06581757E-05 -1.24505775E-09  2.42072166E-04  4.05787284E-05
  6.76314419E-05  8.26730683E-09 -3.06506947E-05 -2.09650181E-05 -2.91629695E-05
  2.11008130E-05  2.48059724E-09  1.26748153E-09 -5.81688538E-06 -2.38417122E-05
 -1.66914947E-06  6.73053640E-06  8.15548184E-10  1.65822560E-04 -2.58546113E-05
 -4.34972869E-05 -5.21965078E-09 -2.07798439E-05 -1.49448676E-05 -1.89192404E-05
  1.40922711E-05  1.67894244E-09  5.47303452E-10 -5.01705509E-06  3.65666840E-06
 -4.20185491E-06  3.55502977E-07  3.68271215E-11  1.61719959E-05  1.33473831E-04
  8.08038645E-06  1.72846871E-09 -3.59343109E-05 -7.14409808E-06 -1.73961100E-05
 -4.43079062E-06 -7.22793333E-10  1.34654065E-09 -3.05963762E-06  4.70232352E-06
  7.52564328E-06 -1.48884898E-06 -1.19756660E-10 -5.10275107E-05 -9.85235043E-05
 -2.99973233E-05 -3.92553430E-09 -2.38088287E-05 -5.79084551E-06 -1.16511619E-05
 -3.41936635E-06 -3.38538987E-10  8.23264374E-10 -4.96173453E-07  3.88205374E-05
 -3.38170756E-05  2.38740490E-05  2.53928994E-09 -1.12035985E-04 -3.04526148E-05
  1.97874826E-04  2.31363836E-08 -1.06001544E-06 -1.83104023E-06 -4.55675176E-06
  2.85805451E-05  3.41277026E-09  5.58347977E-10 -4.58152744E-07  2.56196176E-05
  2.00856768E-05 -1.49530188E-05 -1.79782149E-09 -4.83083740E-05  1.86164647E-05
 -1.49676186E-04 -1.76959645E-08 -1.02849826E-06 -9.80310809E-07 -3.08908638E-06
  2.03318362E-05  2.39218070E-09  2.83787769E-10  6.67946692E-06 -4.64651609E-05
  6.67950512E-06 -4.64650572E-05  5.06858823E-06 -2.95514631E-05  5.06866589E-06
 -2.95511612E-05 -5.54822349E-01 -8.15787947E-03 -2.61377724E-05  1.35953249E-05
  1.39629638E-09  9.87970679E-03  2.75693371E-05 -1.06152908E-05 -1.04670564E-09
 -8.16161624E-04 -2.97051381E-05  1.70091390E-05  1.78044663E-09 -3.48877950E-03
 -3.49174275E-03 -3.48873097E-03  2.09689537E-06  2.43750877E-10 -3.87365712E-10
  8.27296846E-01  1.21642999E-02 -3.93874624E-05  2.04254978E-05  2.46563040E-09
 -1.47308439E-02  4.34732878E-05 -1.67808942E-05 -2.02265038E-09  1.20641795E-03
 -3.81995673E-05  2.38395346E-05  2.85142907E-09  5.20032532E-03  5.20695956E-03
  5.20194064E-03 -2.38151031E-06 -2.81206401E-10  6.95787646E-10  5.70566134E-06
  2.42633186E-05  1.12482235E-07  8.24741546E-06  9.89786649E-10 -1.53180684E-04
 -3.07955041E-05 -5.02559318E-05 -6.21815020E-09  1.99652211E-05  1.17288907E-05
  2.12410624E-05 -1.43062916E-05 -1.69904598E-09 -1.40956779E-09 -8.55335354E-06
 -3.60061391E-05 -5.63146675E-07  1.16754761E-05  1.37650227E-09  2.33594108E-04
 -4.38923777E-05 -7.21641088E-05 -8.51114378E-09 -3.01043543E-05 -1.88082865E-05
 -3.07201307E-05  2.12443425E-05  2.52321436E-09  1.61702222E-09  4.16834195E-06
  3.47599481E-06 -9.58589305E-06  3.05621941E-06  3.73106800E-10 -1.73869668E-04
 -6.57742005E-05  5.93400346E-05  6.26370091E-09  2.48640899E-05  2.15714905E-06
  1.17073177E-05  1.79136986E-06  2.91506510E-10 -1.29905127E-09 -5.76059973E-06
 -1.82806207E-06 -7.27389254E-06  2.69262069E-06  2.75093641E-10  1.66998026E-04
 -1.11510791E-04  5.18332716E-05  6.42787418E-09 -3.66420006E-05 -4.70718002E-06
 -1.74337741E-05 -3.33896174E-06 -3.98945009E-10  1.74691149E-09  2.36652959E-09
 -2.71286727E-05  2.95127803E-05 -1.87986562E-05 -1.98279971E-09  1.45823093E-04
  2.51821199E-05 -8.79847661E-05 -1.00692893E-08 -1.25980877E-07  1.88063438E-06
  2.96869117E-06 -1.60993051E-05 -1.89391023E-09 -2.62515382E-10 -1.90506463E-07
  3.98325739E-05  4.01393034E-05 -2.64531467E-05 -3.19176951E-09 -1.77433713E-04
  3.48555278E-05 -1.56501872E-04 -1.87142502E-08 -2.85747849E-07 -2.43490320E-06
 -4.47602035E-06  2.57420177E-05  3.07521302E-09  2.69294896E-10 -2.92752619E-06
  3.54041913E-05 -2.92746695E-06  3.54044128E-05  5.24357545E-06 -5.03902948E-05
  5.24353529E-06 -5.03904375E-05  2.42875066E-07  1.83282841E-06  4.89531853E-06
 -4.65518705E-06 -5.06325967E-10  2.67949171E-05 -2.43668430E-05  1.13942903E-05
  1.12931118E-09 -9.92185045E-05 -6.96257987E-05  3.28605832E-06 -6.90157021E-12
 -1.84124308E-05 -1.05739935E-05 -5.10612603E-06  1.24153822E-05  1.36697312E-09
 -6.70881395E-10 -2.35515679E-07 -1.73861464E-06  4.71542268E-06 -4.49531452E-06
 -5.42636377E-10 -2.58796444E-05 -2.34710139E-05  1.09686129E-05  1.34537818E-09
  9.46496613E-05 -6.69327163E-05  2.43564399E-06  2.45587533E-10  1.78865158E-05
  1.01535527E-05  5.05468345E-06 -1.19280948E-05 -1.41605382E-09  6.96954760E-10
  7.14576936E-01  1.50378412E-02  1.45282923E-05  1.17315201E-03  1.38394551E-07
  3.38294703E-03 -1.40993120E-05  3.93122732E-05  4.55279309E-09 -2.81863751E-03
 -2.53478116E-03 -3.01620515E-03  9.28050596E-06  2.65254344E-09  6.55214368E-08
 -6.91952672E-01 -1.45616637E-02  1.41056034E-05  1.13592996E-03  1.35202725E-07
 -3.27533150E-03 -1.43985871E-05  3.78157548E-05  4.48712524E-09  2.72936532E-03
  2.45464511E-03  2.92093630E-03 -8.86141110E-06 -9.54442724E-10 -6.40936688E-08
  1.75935047E-06  6.06878319E-06 -1.32111717E-05  1.99248703E-06  2.08553019E-11
 -2.60841015E-04  2.17001260E-04  6.84444026E-05  1.06469798E-08  3.48613202E-05
 -2.12672224E-05 -8.65385346E-06 -1.99240981E-05 -2.01924636E-09 -1.85455127E-09
 -1.79058275E-06 -6.12243962E-06 -1.31851373E-05  1.26009288E-06  2.57288970E-10
  2.57979348E-04  2.14826867E-04  6.88783573E-05  7.02610324E-09 -3.36778122E-05
  1.99594690E-05  8.10998238E-06  1.99075803E-05  2.41226351E-09  1.59422680E-09
 -1.06420874E-05  2.82800598E-04 -1.48958924E-05  1.02575220E-04  1.20099823E-08
 -4.20901592E-06  1.45932633E-04  5.55276507E-04  6.59713638E-08 -3.50472690E-05
 -6.19993819E-04 -3.59084814E-05 -5.86544720E-06 -7.57736904E-10 -7.95369061E-08
  1.04321853E-05 -2.73120749E-04 -1.46297787E-05  9.94717693E-05  1.18466694E-08
 -2.37088884E-06  1.46690675E-04  5.38513359E-04  6.43458290E-08  3.38127293E-05
  6.00250034E-04  3.51573527E-05  5.51459197E-06  5.97949471E-10  7.76454197E-08
 -3.08566032E-06  8.17475084E-06 -3.08561386E-06  8.17294181E-06  3.74430103E-06
 -9.33284609E-06  3.74427161E-06 -9.33130020E-06  2.24940183E-07  2.89986021E-06
  5.51473576E-06 -4.89614473E-06 -5.38081716E-10  2.80284952E-05 -2.74621095E-05
  1.30528819E-05  1.34427546E-09 -1.40464070E-04 -8.26166087E-05  2.63904158E-05
  2.46266369E-09 -1.60564375E-05 -1.29032349E-05 -1.51755406E-06  1.49519540E-05
  1.63200746E-09 -1.44362911E-09  2.32635480E-07  2.95730679E-06 -5.66933074E-06
  5.04333595E-06  6.02870992E-10  2.88758050E-05  2.82316156E-05 -1.34126099E-05
 -1.60961140E-09 -1.43582540E-04  8.48131917E-05 -2.64825214E-05 -3.22479226E-09
 -1.66403319E-05 -1.32366684E-05 -1.68100055E-06  1.53435350E-05  1.83928677E-09