285373                                                                  
Freq      RMP2-FC                                                     6-31G(d)            
Number of atoms                            I               18
Info1-9                                    I   N=           9
          30          28        1002           0           0         100
           6           2           1
Charge                                     I                0
Multiplicity                               I                1
Number of electrons                        I               82
Number of alpha electrons                  I               41
Number of beta electrons                   I               41
Number of basis functions                  I              179
Number of independent functions            I              179
Number of point charges in /Mol/           I                0
Number of translation vectors              I                0
Atomic numbers                             I   N=          18
           9           9           9           6           6           6
           6           6           6           6           6           1
           1           1           1           1           1           1
Nuclear charges                            R   N=          18
  9.00000000E+00  9.00000000E+00  9.00000000E+00  6.00000000E+00  6.00000000E+00
  6.00000000E+00  6.00000000E+00  6.00000000E+00  6.00000000E+00  6.00000000E+00
  6.00000000E+00  1.00000000E+00  1.00000000E+00  1.00000000E+00  1.00000000E+00
  1.00000000E+00  1.00000000E+00  1.00000000E+00
Current cartesian coordinates              R   N=          54
  3.25194921E+00 -2.06032954E+00 -1.65402895E+00  5.95875680E+00 -3.17496686E-05
  6.73443243E-01  3.25197284E+00  2.06041129E+00 -1.65390153E+00  1.69591008E+00
 -5.92296220E-05  2.00147903E+00 -1.00201494E+00 -2.82577146E-05  1.09766156E+00
  3.53932472E+00  7.82009270E-07 -1.68511577E-01 -2.25666568E+00  2.28231480E+00
  6.35302835E-01 -2.25671251E+00 -2.28234160E+00  6.35283699E-01 -4.74036946E+00
  2.28287561E+00 -2.49749352E-01 -4.74041661E+00 -2.28284456E+00 -2.49767970E-01
 -5.98696859E+00  3.01411875E-05 -6.96026634E-01  2.11124487E+00 -1.67064281E+00
  3.14773395E+00  2.11124374E+00  1.67044975E+00  3.14784400E+00 -1.28647057E+00
  4.06347363E+00  9.75587804E-01 -1.28655285E+00 -4.06352293E+00  9.75551769E-01
 -5.70106915E+00  4.06610513E+00 -5.94621706E-01 -5.70115261E+00 -4.06605210E+00
 -5.94654390E-01 -7.92387514E+00  5.31947328E-05 -1.38108576E+00
Force Field                                I                0
Int Atom Types                             I   N=          18
           0           0           0           0           0           0
           0           0           0           0           0           0
           0           0           0           0           0           0
MM charges                                 R   N=          18
  0.00000000E+00  0.00000000E+00  0.00000000E+00  0.00000000E+00  0.00000000E+00
  0.00000000E+00  0.00000000E+00  0.00000000E+00  0.00000000E+00  0.00000000E+00
  0.00000000E+00  0.00000000E+00  0.00000000E+00  0.00000000E+00  0.00000000E+00
  0.00000000E+00  0.00000000E+00  0.00000000E+00
Integer atomic weights                     I   N=          18
          19          19          19          12          12          12
          12          12          12          12          12           1
           1           1           1           1           1           1
Real atomic weights                        R   N=          18
  1.89984032E+01  1.89984032E+01  1.89984032E+01  1.20000000E+01  1.20000000E+01
  1.20000000E+01  1.20000000E+01  1.20000000E+01  1.20000000E+01  1.20000000E+01
  1.20000000E+01  1.00782504E+00  1.00782504E+00  1.00782504E+00  1.00782504E+00
  1.00782504E+00  1.00782504E+00  1.00782504E+00
Atom fragment info                         I   N=          18
           0           0           0           0           0           0
           0           0           0           0           0           0
           0           0           0           0           0           0
Atom residue num                           I   N=          18
           0           0           0           0           0           0
           0           0           0           0           0           0
           0           0           0           0           0           0
Nuclear spins                              I   N=          18
           1           1           1           0           0           0
           0           0           0           0           0           1
           1           1           1           1           1           1
Nuclear ZEff                               R   N=          18
 -6.75000000E+00 -6.75000000E+00 -6.75000000E+00 -3.60000000E+00 -3.60000000E+00
 -3.60000000E+00 -3.60000000E+00 -3.60000000E+00 -3.60000000E+00 -3.60000000E+00
 -3.60000000E+00 -1.00000000E+00 -1.00000000E+00 -1.00000000E+00 -1.00000000E+00
 -1.00000000E+00 -1.00000000E+00 -1.00000000E+00
Nuclear QMom                               R   N=          18
  0.00000000E+00  0.00000000E+00  0.00000000E+00  0.00000000E+00  0.00000000E+00
  0.00000000E+00  0.00000000E+00  0.00000000E+00  0.00000000E+00  0.00000000E+00
  0.00000000E+00  0.00000000E+00  0.00000000E+00  0.00000000E+00  0.00000000E+00
  0.00000000E+00  0.00000000E+00  0.00000000E+00
Nuclear GFac                               R   N=          18
  2.62886700E+00  2.62886700E+00  2.62886700E+00  0.00000000E+00  0.00000000E+00
  0.00000000E+00  0.00000000E+00  0.00000000E+00  0.00000000E+00  0.00000000E+00
  0.00000000E+00  2.79284600E+00  2.79284600E+00  2.79284600E+00  2.79284600E+00
  2.79284600E+00  2.79284600E+00  2.79284600E+00
MicOpt                                     I   N=          18
          -1          -1          -1          -1          -1          -1
          -1          -1          -1          -1          -1          -1
          -1          -1          -1          -1          -1          -1
Number of contracted shells                I               58
Number of primitive shells                 I              149
Pure/Cartesian d shells                    I                1
Pure/Cartesian f shells                    I                0
Highest angular momentum                   I                2
Largest degree of contraction              I                6
Shell types                                I   N=          58
           0          -1          -1           2           0          -1
          -1           2           0          -1          -1           2
           0          -1          -1           2           0          -1
          -1           2           0          -1          -1           2
           0          -1          -1           2           0          -1
          -1           2           0          -1          -1           2
           0          -1          -1           2           0          -1
          -1           2           0           0           0           0
           0           0           0           0           0           0
           0           0           0           0
Number of primitives per shell             I   N=          58
           6           3           1           1           6           3
           1           1           6           3           1           1
           6           3           1           1           6           3
           1           1           6           3           1           1
           6           3           1           1           6           3
           1           1           6           3           1           1
           6           3           1           1           6           3
           1           1           3           1           3           1
           3           1           3           1           3           1
           3           1           3           1
Shell to atom map                          I   N=          58
           1           1           1           1           2           2
           2           2           3           3           3           3
           4           4           4           4           5           5
           5           5           6           6           6           6
           7           7           7           7           8           8
           8           8           9           9           9           9
          10          10          10          10          11          11
          11          11          12          12          13          13
          14          14          15          15          16          16
          17          17          18          18
Primitive exponents                        R   N=         149
  7.00171309E+03  1.05136609E+03  2.39285690E+02  6.73974453E+01  2.15199573E+01
  7.40310130E+00  2.08479528E+01  4.80830834E+00  1.34406986E+00  3.58151393E-01
  8.00000000E-01  7.00171309E+03  1.05136609E+03  2.39285690E+02  6.73974453E+01
  2.15199573E+01  7.40310130E+00  2.08479528E+01  4.80830834E+00  1.34406986E+00
  3.58151393E-01  8.00000000E-01  7.00171309E+03  1.05136609E+03  2.39285690E+02
  6.73974453E+01  2.15199573E+01  7.40310130E+00  2.08479528E+01  4.80830834E+00
  1.34406986E+00  3.58151393E-01  8.00000000E-01  3.04752488E+03  4.57369518E+02
  1.03948685E+02  2.92101553E+01  9.28666296E+00  3.16392696E+00  7.86827235E+00
  1.88128854E+00  5.44249258E-01  1.68714478E-01  8.00000000E-01  3.04752488E+03
  4.57369518E+02  1.03948685E+02  2.92101553E+01  9.28666296E+00  3.16392696E+00
  7.86827235E+00  1.88128854E+00  5.44249258E-01  1.68714478E-01  8.00000000E-01
  3.04752488E+03  4.57369518E+02  1.03948685E+02  2.92101553E+01  9.28666296E+00
  3.16392696E+00  7.86827235E+00  1.88128854E+00  5.44249258E-01  1.68714478E-01
  8.00000000E-01  3.04752488E+03  4.57369518E+02  1.03948685E+02  2.92101553E+01
  9.28666296E+00  3.16392696E+00  7.86827235E+00  1.88128854E+00  5.44249258E-01
  1.68714478E-01  8.00000000E-01  3.04752488E+03  4.57369518E+02  1.03948685E+02
  2.92101553E+01  9.28666296E+00  3.16392696E+00  7.86827235E+00  1.88128854E+00
  5.44249258E-01  1.68714478E-01  8.00000000E-01  3.04752488E+03  4.57369518E+02
  1.03948685E+02  2.92101553E+01  9.28666296E+00  3.16392696E+00  7.86827235E+00
  1.88128854E+00  5.44249258E-01  1.68714478E-01  8.00000000E-01  3.04752488E+03
  4.57369518E+02  1.03948685E+02  2.92101553E+01  9.28666296E+00  3.16392696E+00
  7.86827235E+00  1.88128854E+00  5.44249258E-01  1.68714478E-01  8.00000000E-01
  3.04752488E+03  4.57369518E+02  1.03948685E+02  2.92101553E+01  9.28666296E+00
  3.16392696E+00  7.86827235E+00  1.88128854E+00  5.44249258E-01  1.68714478E-01
  8.00000000E-01  1.87311370E+01  2.82539436E+00  6.40121692E-01  1.61277759E-01
  1.87311370E+01  2.82539436E+00  6.40121692E-01  1.61277759E-01  1.87311370E+01
  2.82539436E+00  6.40121692E-01  1.61277759E-01  1.87311370E+01  2.82539436E+00
  6.40121692E-01  1.61277759E-01  1.87311370E+01  2.82539436E+00  6.40121692E-01
  1.61277759E-01  1.87311370E+01  2.82539436E+00  6.40121692E-01  1.61277759E-01
  1.87311370E+01  2.82539436E+00  6.40121692E-01  1.61277759E-01
Contraction coefficients                   R   N=         149
  1.81961690E-03  1.39160796E-02  6.84053245E-02  2.33185760E-01  4.71267439E-01
  3.56618546E-01 -1.08506975E-01 -1.46451658E-01  1.12868858E+00  1.00000000E+00
  1.00000000E+00  1.81961690E-03  1.39160796E-02  6.84053245E-02  2.33185760E-01
  4.71267439E-01  3.56618546E-01 -1.08506975E-01 -1.46451658E-01  1.12868858E+00
  1.00000000E+00  1.00000000E+00  1.81961690E-03  1.39160796E-02  6.84053245E-02
  2.33185760E-01  4.71267439E-01  3.56618546E-01 -1.08506975E-01 -1.46451658E-01
  1.12868858E+00  1.00000000E+00  1.00000000E+00  1.83473713E-03  1.40373228E-02
  6.88426223E-02  2.32184443E-01  4.67941348E-01  3.62311985E-01 -1.19332420E-01
 -1.60854152E-01  1.14345644E+00  1.00000000E+00  1.00000000E+00  1.83473713E-03
  1.40373228E-02  6.88426223E-02  2.32184443E-01  4.67941348E-01  3.62311985E-01
 -1.19332420E-01 -1.60854152E-01  1.14345644E+00  1.00000000E+00  1.00000000E+00
  1.83473713E-03  1.40373228E-02  6.88426223E-02  2.32184443E-01  4.67941348E-01
  3.62311985E-01 -1.19332420E-01 -1.60854152E-01  1.14345644E+00  1.00000000E+00
  1.00000000E+00  1.83473713E-03  1.40373228E-02  6.88426223E-02  2.32184443E-01
  4.67941348E-01  3.62311985E-01 -1.19332420E-01 -1.60854152E-01  1.14345644E+00
  1.00000000E+00  1.00000000E+00  1.83473713E-03  1.40373228E-02  6.88426223E-02
  2.32184443E-01  4.67941348E-01  3.62311985E-01 -1.19332420E-01 -1.60854152E-01
  1.14345644E+00  1.00000000E+00  1.00000000E+00  1.83473713E-03  1.40373228E-02
  6.88426223E-02  2.32184443E-01  4.67941348E-01  3.62311985E-01 -1.19332420E-01
 -1.60854152E-01  1.14345644E+00  1.00000000E+00  1.00000000E+00  1.83473713E-03
  1.40373228E-02  6.88426223E-02  2.32184443E-01  4.67941348E-01  3.62311985E-01
 -1.19332420E-01 -1.60854152E-01  1.14345644E+00  1.00000000E+00  1.00000000E+00
  1.83473713E-03  1.40373228E-02  6.88426223E-02  2.32184443E-01  4.67941348E-01
  3.62311985E-01 -1.19332420E-01 -1.60854152E-01  1.14345644E+00  1.00000000E+00
  1.00000000E+00  3.34946043E-02  2.34726953E-01  8.13757326E-01  1.00000000E+00
  3.34946043E-02  2.34726953E-01  8.13757326E-01  1.00000000E+00  3.34946043E-02
  2.34726953E-01  8.13757326E-01  1.00000000E+00  3.34946043E-02  2.34726953E-01
  8.13757326E-01  1.00000000E+00  3.34946043E-02  2.34726953E-01  8.13757326E-01
  1.00000000E+00  3.34946043E-02  2.34726953E-01  8.13757326E-01  1.00000000E+00
  3.34946043E-02  2.34726953E-01  8.13757326E-01  1.00000000E+00
P(S=P) Contraction coefficients            R   N=         149
  0.00000000E+00  0.00000000E+00  0.00000000E+00  0.00000000E+00  0.00000000E+00
  0.00000000E+00  7.16287242E-02  3.45912103E-01  7.22469956E-01  1.00000000E+00
  0.00000000E+00  0.00000000E+00  0.00000000E+00  0.00000000E+00  0.00000000E+00
  0.00000000E+00  0.00000000E+00  7.16287242E-02  3.45912103E-01  7.22469956E-01
  1.00000000E+00  0.00000000E+00  0.00000000E+00  0.00000000E+00  0.00000000E+00
  0.00000000E+00  0.00000000E+00  0.00000000E+00  7.16287242E-02  3.45912103E-01
  7.22469956E-01  1.00000000E+00  0.00000000E+00  0.00000000E+00  0.00000000E+00
  0.00000000E+00  0.00000000E+00  0.00000000E+00  0.00000000E+00  6.89990666E-02
  3.16423961E-01  7.44308291E-01  1.00000000E+00  0.00000000E+00  0.00000000E+00
  0.00000000E+00  0.00000000E+00  0.00000000E+00  0.00000000E+00  0.00000000E+00
  6.89990666E-02  3.16423961E-01  7.44308291E-01  1.00000000E+00  0.00000000E+00
  0.00000000E+00  0.00000000E+00  0.00000000E+00  0.00000000E+00  0.00000000E+00
  0.00000000E+00  6.89990666E-02  3.16423961E-01  7.44308291E-01  1.00000000E+00
  0.00000000E+00  0.00000000E+00  0.00000000E+00  0.00000000E+00  0.00000000E+00
  0.00000000E+00  0.00000000E+00  6.89990666E-02  3.16423961E-01  7.44308291E-01
  1.00000000E+00  0.00000000E+00  0.00000000E+00  0.00000000E+00  0.00000000E+00
  0.00000000E+00  0.00000000E+00  0.00000000E+00  6.89990666E-02  3.16423961E-01
  7.44308291E-01  1.00000000E+00  0.00000000E+00  0.00000000E+00  0.00000000E+00
  0.00000000E+00  0.00000000E+00  0.00000000E+00  0.00000000E+00  6.89990666E-02
  3.16423961E-01  7.44308291E-01  1.00000000E+00  0.00000000E+00  0.00000000E+00
  0.00000000E+00  0.00000000E+00  0.00000000E+00  0.00000000E+00  0.00000000E+00
  6.89990666E-02  3.16423961E-01  7.44308291E-01  1.00000000E+00  0.00000000E+00
  0.00000000E+00  0.00000000E+00  0.00000000E+00  0.00000000E+00  0.00000000E+00
  0.00000000E+00  6.89990666E-02  3.16423961E-01  7.44308291E-01  1.00000000E+00
  0.00000000E+00  0.00000000E+00  0.00000000E+00  0.00000000E+00  0.00000000E+00
  0.00000000E+00  0.00000000E+00  0.00000000E+00  0.00000000E+00  0.00000000E+00
  0.00000000E+00  0.00000000E+00  0.00000000E+00  0.00000000E+00  0.00000000E+00
  0.00000000E+00  0.00000000E+00  0.00000000E+00  0.00000000E+00  0.00000000E+00
  0.00000000E+00  0.00000000E+00  0.00000000E+00  0.00000000E+00  0.00000000E+00
  0.00000000E+00  0.00000000E+00  0.00000000E+00  0.00000000E+00
Coordinates of each shell                  R   N=         174
  3.25194921E+00 -2.06032954E+00 -1.65402895E+00  3.25194921E+00 -2.06032954E+00
 -1.65402895E+00  3.25194921E+00 -2.06032954E+00 -1.65402895E+00  3.25194921E+00
 -2.06032954E+00 -1.65402895E+00  5.95875680E+00 -3.17496686E-05  6.73443243E-01
  5.95875680E+00 -3.17496686E-05  6.73443243E-01  5.95875680E+00 -3.17496686E-05
  6.73443243E-01  5.95875680E+00 -3.17496686E-05  6.73443243E-01  3.25197284E+00
  2.06041129E+00 -1.65390153E+00  3.25197284E+00  2.06041129E+00 -1.65390153E+00
  3.25197284E+00  2.06041129E+00 -1.65390153E+00  3.25197284E+00  2.06041129E+00
 -1.65390153E+00  1.69591008E+00 -5.92296220E-05  2.00147903E+00  1.69591008E+00
 -5.92296220E-05  2.00147903E+00  1.69591008E+00 -5.92296220E-05  2.00147903E+00
  1.69591008E+00 -5.92296220E-05  2.00147903E+00 -1.00201494E+00 -2.82577146E-05
  1.09766156E+00 -1.00201494E+00 -2.82577146E-05  1.09766156E+00 -1.00201494E+00
 -2.82577146E-05  1.09766156E+00 -1.00201494E+00 -2.82577146E-05  1.09766156E+00
  3.53932472E+00  7.82009270E-07 -1.68511577E-01  3.53932472E+00  7.82009270E-07
 -1.68511577E-01  3.53932472E+00  7.82009270E-07 -1.68511577E-01  3.53932472E+00
  7.82009270E-07 -1.68511577E-01 -2.25666568E+00  2.28231480E+00  6.35302835E-01
 -2.25666568E+00  2.28231480E+00  6.35302835E-01 -2.25666568E+00  2.28231480E+00
  6.35302835E-01 -2.25666568E+00  2.28231480E+00  6.35302835E-01 -2.25671251E+00
 -2.28234160E+00  6.35283699E-01 -2.25671251E+00 -2.28234160E+00  6.35283699E-01
 -2.25671251E+00 -2.28234160E+00  6.35283699E-01 -2.25671251E+00 -2.28234160E+00
  6.35283699E-01 -4.74036946E+00  2.28287561E+00 -2.49749352E-01 -4.74036946E+00
  2.28287561E+00 -2.49749352E-01 -4.74036946E+00  2.28287561E+00 -2.49749352E-01
 -4.74036946E+00  2.28287561E+00 -2.49749352E-01 -4.74041661E+00 -2.28284456E+00
 -2.49767970E-01 -4.74041661E+00 -2.28284456E+00 -2.49767970E-01 -4.74041661E+00
 -2.28284456E+00 -2.49767970E-01 -4.74041661E+00 -2.28284456E+00 -2.49767970E-01
 -5.98696859E+00  3.01411875E-05 -6.96026634E-01 -5.98696859E+00  3.01411875E-05
 -6.96026634E-01 -5.98696859E+00  3.01411875E-05 -6.96026634E-01 -5.98696859E+00
  3.01411875E-05 -6.96026634E-01  2.11124487E+00 -1.67064281E+00  3.14773395E+00
  2.11124487E+00 -1.67064281E+00  3.14773395E+00  2.11124374E+00  1.67044975E+00
  3.14784400E+00  2.11124374E+00  1.67044975E+00  3.14784400E+00 -1.28647057E+00
  4.06347363E+00  9.75587804E-01 -1.28647057E+00  4.06347363E+00  9.75587804E-01
 -1.28655285E+00 -4.06352293E+00  9.75551769E-01 -1.28655285E+00 -4.06352293E+00
  9.75551769E-01 -5.70106915E+00  4.06610513E+00 -5.94621706E-01 -5.70106915E+00
  4.06610513E+00 -5.94621706E-01 -5.70115261E+00 -4.06605210E+00 -5.94654390E-01
 -5.70115261E+00 -4.06605210E+00 -5.94654390E-01 -7.92387514E+00  5.31947328E-05
 -1.38108576E+00 -7.92387514E+00  5.31947328E-05 -1.38108576E+00
Constraint Structure                       R   N=          54
  3.25194921E+00 -2.06032954E+00 -1.65402895E+00  5.95875680E+00 -3.17496686E-05
  6.73443243E-01  3.25197284E+00  2.06041129E+00 -1.65390153E+00  1.69591008E+00
 -5.92296220E-05  2.00147903E+00 -1.00201494E+00 -2.82577146E-05  1.09766156E+00
  3.53932472E+00  7.82009270E-07 -1.68511577E-01 -2.25666568E+00  2.28231480E+00
  6.35302835E-01 -2.25671251E+00 -2.28234160E+00  6.35283699E-01 -4.74036946E+00
  2.28287561E+00 -2.49749352E-01 -4.74041661E+00 -2.28284456E+00 -2.49767970E-01
 -5.98696859E+00  3.01411875E-05 -6.96026634E-01  2.11124487E+00 -1.67064281E+00
  3.14773395E+00  2.11124374E+00  1.67044975E+00  3.14784400E+00 -1.28647057E+00
  4.06347363E+00  9.75587804E-01 -1.28655285E+00 -4.06352293E+00  9.75551769E-01
 -5.70106915E+00  4.06610513E+00 -5.94621706E-01 -5.70115261E+00 -4.06605210E+00
 -5.94654390E-01 -7.92387514E+00  5.31947328E-05 -1.38108576E+00
Num ILSW                                   I              100
ILSW                                       I   N=         100
           0           1           0           0           2           0
           0           0           0           0           0          -1
           0           0           0           0           0           0
           0           0           0           0           1           0
           1           0           0           0           0           0
           0           0      100000           0          -1           0
           0           0           0           0           0           0
           0           0           0           1           1           0
           0           0           1           0           0           0
           0           0           4          40           0           0
           0           0           0           0           0           0
           0           0           0           0           0           0
           0           0           0           0           0           0
           0           0           0           0           0           0
           0           0           0           0           0           0
           0           0           0           0           0           0
           0           0           0           0
Num RLSW                                   I               40
RLSW                                       R   N=          40
  1.00000000E+00  1.00000000E+00  1.00000000E+00  1.00000000E+00  1.00000000E+00
  0.00000000E+00  0.00000000E+00  1.00000000E+00  0.00000000E+00  0.00000000E+00
  0.00000000E+00  0.00000000E+00  1.00000000E+00  0.00000000E+00  0.00000000E+00
  0.00000000E+00  0.00000000E+00  1.00000000E+00  0.00000000E+00  0.00000000E+00
  0.00000000E+00  0.00000000E+00  1.00000000E+00  0.00000000E+00  0.00000000E+00
  0.00000000E+00  0.00000000E+00  1.00000000E+00  0.00000000E+00  0.00000000E+00
  0.00000000E+00  0.00000000E+00  0.00000000E+00  0.00000000E+00  0.00000000E+00
  0.00000000E+00  0.00000000E+00  0.00000000E+00  1.00000000E+00  1.00000000E+00
MxBond                                     I                4
NBond                                      I   N=          18
           1           1           1           4           3           4
           3           3           3           3           3           1
           1           1           1           1           1           1
IBond                                      I   N=          72
           6           0           0           0           6           0
           0           0           6           0           0           0
           5           6          12          13           4           7
           8           0           1           2           3           4
           5           9          14           0           5          10
          15           0           7          11          16           0
           8          11          17           0           9          10
          18           0           4           0           0           0
           4           0           0           0           7           0
           0           0           8           0           0           0
           9           0           0           0          10           0
           0           0          11           0           0           0
RBond                                      R   N=          72
  1.00000000E+00  0.00000000E+00  0.00000000E+00  0.00000000E+00  1.00000000E+00
  0.00000000E+00  0.00000000E+00  0.00000000E+00  1.00000000E+00  0.00000000E+00
  0.00000000E+00  0.00000000E+00  1.00000000E+00  1.00000000E+00  1.00000000E+00
  1.00000000E+00  1.00000000E+00  1.50000000E+00  1.50000000E+00  0.00000000E+00
  1.00000000E+00  1.00000000E+00  1.00000000E+00  1.00000000E+00  1.50000000E+00
  1.50000000E+00  1.00000000E+00  0.00000000E+00  1.50000000E+00  1.50000000E+00
  1.00000000E+00  0.00000000E+00  1.50000000E+00  1.50000000E+00  1.00000000E+00
  0.00000000E+00  1.50000000E+00  1.50000000E+00  1.00000000E+00  0.00000000E+00
  1.50000000E+00  1.50000000E+00  1.00000000E+00  0.00000000E+00  1.00000000E+00
  0.00000000E+00  0.00000000E+00  0.00000000E+00  1.00000000E+00  0.00000000E+00
  0.00000000E+00  0.00000000E+00  1.00000000E+00  0.00000000E+00  0.00000000E+00
  0.00000000E+00  1.00000000E+00  0.00000000E+00  0.00000000E+00  0.00000000E+00
  1.00000000E+00  0.00000000E+00  0.00000000E+00  0.00000000E+00  1.00000000E+00
  0.00000000E+00  0.00000000E+00  0.00000000E+00  1.00000000E+00  0.00000000E+00
  0.00000000E+00  0.00000000E+00
Virial Ratio                               R      2.002253449026337E+00
SCF Energy                                 R     -6.053609654650297E+02
MP2 Energy                                 R     -6.068870454088792E+02
Total Energy                               R     -6.068870454088792E+02
Post-SCF wavefunction norm                 R      1.716957247204462E+00
RMS Force                                  R      1.146727023685280E-06
RMS Density                                R      1.769478776489722E-09
External E-field                           R   N=          35
  0.00000000E+00  0.00000000E+00  0.00000000E+00  0.00000000E+00  0.00000000E+00
  0.00000000E+00  0.00000000E+00  0.00000000E+00  0.00000000E+00  0.00000000E+00
  0.00000000E+00  0.00000000E+00  0.00000000E+00  0.00000000E+00  0.00000000E+00
  0.00000000E+00  0.00000000E+00  0.00000000E+00  0.00000000E+00  0.00000000E+00
  0.00000000E+00  0.00000000E+00  0.00000000E+00  0.00000000E+00  0.00000000E+00
  0.00000000E+00  0.00000000E+00  0.00000000E+00  0.00000000E+00  0.00000000E+00
  0.00000000E+00  0.00000000E+00  0.00000000E+00  0.00000000E+00  0.00000000E+00
IOpCl                                      I                0
IROHF                                      I                0
Alpha Orbital Energies                     R   N=         179
 -2.63311561E+01 -2.63305602E+01 -2.63305417E+01 -1.15020965E+01 -1.12632168E+01
 -1.12548980E+01 -1.12446781E+01 -1.12446588E+01 -1.12436562E+01 -1.12427962E+01
 -1.12421142E+01 -1.70848608E+00 -1.61602425E+00 -1.61589939E+00 -1.16407649E+00
 -1.08898617E+00 -1.01887848E+00 -9.99307393E-01 -9.09135103E-01 -8.34399143E-01
 -8.22775885E-01 -8.04594653E-01 -8.01098603E-01 -7.60108255E-01 -7.02805117E-01
 -6.94612096E-01 -6.88941731E-01 -6.52214185E-01 -6.47726939E-01 -6.38480853E-01
 -6.35691195E-01 -6.31190667E-01 -5.91393014E-01 -5.79352054E-01 -5.69497149E-01
 -5.63990274E-01 -4.98946356E-01 -4.98142045E-01 -4.96061976E-01 -3.39445775E-01
 -3.36613754E-01  1.29678294E-01  1.35243404E-01  2.25010269E-01  2.56828271E-01
  2.63673136E-01  3.00317924E-01  3.06644950E-01  3.30682618E-01  3.31582778E-01
  3.50407551E-01  3.58935661E-01  3.99424892E-01  4.13555475E-01  4.46689714E-01
  4.63832651E-01  4.69539310E-01  4.88723780E-01  5.19378357E-01  5.21889523E-01
  6.37521747E-01  6.88413463E-01  7.10824920E-01  7.25512466E-01  7.42959306E-01
  7.49628378E-01  7.68158241E-01  7.78333857E-01  7.91896617E-01  7.97796575E-01
  8.27386113E-01  8.30320446E-01  8.34335396E-01  8.44769321E-01  8.55360994E-01
  8.97882806E-01  9.15129283E-01  9.32275942E-01  9.83045319E-01  1.02408523E+00
  1.07311018E+00  1.09046144E+00  1.10519741E+00  1.10564323E+00  1.11174178E+00
  1.14356466E+00  1.15306579E+00  1.16654756E+00  1.17564083E+00  1.20169285E+00
  1.21731353E+00  1.25590425E+00  1.30140014E+00  1.33732326E+00  1.36143978E+00
  1.37693097E+00  1.39178908E+00  1.41844861E+00  1.41854963E+00  1.44597116E+00
  1.50506111E+00  1.56688553E+00  1.61814445E+00  1.63577817E+00  1.63729419E+00
  1.64176414E+00  1.67263407E+00  1.68214811E+00  1.68501342E+00  1.69186336E+00
  1.71012381E+00  1.72068022E+00  1.75093261E+00  1.75982767E+00  1.76700818E+00
  1.78539691E+00  1.80530612E+00  1.96800703E+00  1.97069791E+00  2.06523049E+00
  2.09873012E+00  2.11386903E+00  2.12541189E+00  2.13653262E+00  2.15292064E+00
  2.15869024E+00  2.17779980E+00  2.19712227E+00  2.20329049E+00  2.24511257E+00
  2.27730570E+00  2.28404772E+00  2.29753996E+00  2.30749012E+00  2.36967006E+00
  2.37498177E+00  2.37950181E+00  2.38665287E+00  2.43532024E+00  2.45285626E+00
  2.46311973E+00  2.48391622E+00  2.48631454E+00  2.58333830E+00  2.59485815E+00
  2.59636616E+00  2.62328888E+00  2.64806356E+00  2.68218223E+00  2.74916457E+00
  2.76959027E+00  2.85269922E+00  2.91284126E+00  2.91604922E+00  2.98613126E+00
  3.05724104E+00  3.08442519E+00  3.08953479E+00  3.11306305E+00  3.11376003E+00
  3.15486293E+00  3.15754107E+00  3.26628945E+00  3.38524666E+00  3.40506843E+00
  3.42458842E+00  3.44918458E+00  3.78007572E+00  4.50788522E+00  4.52863261E+00
  4.56000566E+00  4.63668114E+00  4.74083338E+00  4.78591266E+00  4.88849294E+00
  4.92759331E+00  5.06074531E+00  5.23265031E+00  5.70956689E+00
Alpha MO coefficients                      R   N=       32041
 -1.46559750E-02 -1.38528100E-04 -4.51651428E-06 -1.10215991E-05 -4.10966472E-06
 -5.17684096E-04 -9.37322391E-05 -9.06756441E-05 -1.21549056E-04  1.07490624E-04
  1.19097668E-04  1.03397456E-04 -3.58473053E-05 -4.28266766E-05 -3.76815181E-05
  9.94232470E-01  1.79374927E-02 -8.79617918E-04  1.06937733E-08 -2.96978844E-04
  7.50304884E-03  7.25841127E-04 -5.05367072E-09  2.45587749E-04 -4.90688410E-03
 -4.45176115E-03 -4.48953086E-03  4.85254036E-09 -1.88256321E-04  1.71264403E-10
 -1.47020370E-02 -1.39355439E-04 -4.52258998E-06  1.10576645E-05 -4.13539643E-06
 -5.18047535E-04 -9.37259945E-05  9.06620710E-05 -1.21523778E-04  1.07699265E-04
  1.19312212E-04  1.03617189E-04  3.58470973E-05 -4.28214322E-05  3.76698133E-05
  9.04299383E-06  1.24504332E-04 -2.13513432E-05  6.78351443E-10  1.01971458E-05
 -3.61842185E-04 -3.99794353E-04 -1.20401659E-09  2.09723706E-04 -7.85412210E-05
 -7.31776834E-06 -1.78485501E-05 -1.29456398E-10  4.82773794E-05 -1.37469541E-09
  4.92763315E-06  1.46997980E-05  9.53541993E-06 -4.46498838E-10  1.00738110E-05