
    -----------------------------------------------------------------------
          Psi4: An Open-Source Ab Initio Electronic Structure Package
                               Psi4 1.4a3.dev225 

                         Git: Rev {master} 7105e37 


    D. G. A. Smith, L. A. Burns, A. C. Simmonett, R. M. Parrish,
    M. C. Schieber, R. Galvelis, P. Kraus, H. Kruse, R. Di Remigio,
    A. Alenaizan, A. M. James, S. Lehtola, J. P. Misiewicz, M. Scheurer,
    R. A. Shaw, J. B. Schriber, Y. Xie, Z. L. Glick, D. A. Sirianni,
    J. S. O'Brien, J. M. Waldrop, A. Kumar, E. G. Hohenstein,
    B. P. Pritchard, B. R. Brooks, H. F. Schaefer III, A. Yu. Sokolov,
    K. Patkowski, A. E. DePrince III, U. Bozkaya, R. A. King,
    F. A. Evangelista, J. M. Turney, T. D. Crawford, C. D. Sherrill,
    J. Chem. Phys. 152(18) 184108 (2020). https://doi.org/10.1063/5.0006002

                            Additional Code Authors
    E. T. Seidl, C. L. Janssen, E. F. Valeev, M. L. Leininger,
    J. F. Gonthier, R. M. Richard, H. R. McAlexander, M. Saitow, X. Wang,
    P. Verma, and M. H. Lechner

             Previous Authors, Complete List of Code Contributors,
                       and Citations for Specific Modules
    https://github.com/psi4/psi4/blob/master/codemeta.json
    https://github.com/psi4/psi4/graphs/contributors
    http://psicode.org/psi4manual/master/introduction.html#citing-psifour

    -----------------------------------------------------------------------


    Psi4 started on: Saturday, 20 March 2021 03:00AM

    Process ID: 56266
    Host:       c446-101.stampede2.tacc.utexas.edu
    PSIDATADIR: /home1/07844/xy3866/miniconda3/envs/p4env/share/psi4
    Memory:     500.0 MiB
    Threads:    32
    
  ==> Input File <==

--------------------------------------------------------------------------
#psi4
#
memory 32 gb

molecule  {
0 1
  O       -1.3267430     1.3986080    -0.4043610
  N        1.4095890     0.5516460     0.0718950
  N       -2.0120760    -0.7164460     0.1311050
  C        0.3280180    -0.2917100    -0.0638180
  C        0.8200520    -1.5979270    -0.1446940
  C        2.5591820    -0.1927100     0.0828840
  C        2.2225030    -1.5310870    -0.0531270
  C       -1.0490640     0.2229840    -0.1220780
  C        1.3786242     1.9572226     0.1767406
  C       -3.4119730    -0.3353390     0.1671430
  H        0.2239390    -2.4879400    -0.3067250
  H        3.5227950     0.2883690     0.1888050
  H        2.9194420    -2.3581700    -0.0891670
  H        0.6999810     2.3106600     0.9777950
  H        2.3913760     2.3394710     0.4091260
  H        1.0337950     2.4512300    -0.7527080
  H       -1.7260750    -1.5572290     0.6147920
  H       -4.0269330    -1.2262470     0.0275940
  H       -3.5972090     0.3657440    -0.6460440
  H       -3.6872220     0.1511560     1.1097960
units angstrom
no_reorient  #important for SAPT in psi4, default
symmetry c1  #important for SAPT in psi4, default
}

set PROPERTIES_ORIGIN ["COM"]
properties('MP2/aug-cc-pvtz', properties = ['dipole'])
--------------------------------------------------------------------------

  Memory set to  29.802 GiB by Python driver.
    SCF Algorithm Type (re)set to DF.

*** tstart() called on c446-101.stampede2.tacc.utexas.edu
*** at Sat Mar 20 03:00:31 2021

   => Loading Basis Set <=

    Name: AUG-CC-PVTZ
    Role: ORBITAL
    Keyword: BASIS
    atoms 1     entry O          line   331 file /home1/07844/xy3866/miniconda3/envs/p4env/share/psi4/basis/aug-cc-pvtz.gbs 
    atoms 2-3   entry N          line   285 file /home1/07844/xy3866/miniconda3/envs/p4env/share/psi4/basis/aug-cc-pvtz.gbs 
    atoms 4-10  entry C          line   239 file /home1/07844/xy3866/miniconda3/envs/p4env/share/psi4/basis/aug-cc-pvtz.gbs 
    atoms 11-20 entry H          line    40 file /home1/07844/xy3866/miniconda3/envs/p4env/share/psi4/basis/aug-cc-pvtz.gbs 


         ---------------------------------------------------------
                                   SCF
               by Justin Turney, Rob Parrish, Andy Simmonett
                          and Daniel G. A. Smith
                              RHF Reference
                       32 Threads,  30517 MiB Core
         ---------------------------------------------------------

  ==> Geometry <==

    Molecular point group: c1
    Full point group: C1

    Geometry (in Angstrom), charge = 0, multiplicity = 1:

       Center              X                  Y                   Z               Mass       
    ------------   -----------------  -----------------  -----------------  -----------------
         O           -1.343013420284     1.404986044275    -0.393039777625    15.994914619570
         N            1.393318579716     0.558024044275     0.083216222375    14.003074004430
         N           -2.028346420284    -0.710067955725     0.142426222375    14.003074004430
         C            0.311747579716    -0.285331955725    -0.052496777625    12.000000000000
         C            0.803781579716    -1.591548955725    -0.133372777625    12.000000000000
         C            2.542911579716    -0.186331955725     0.094205222375    12.000000000000
         C            2.206232579716    -1.524708955725    -0.041805777625    12.000000000000
         C           -1.065334420284     0.229362044275    -0.110756777625    12.000000000000
         C            1.362353779716     1.963600644275     0.188061822375    12.000000000000
         C           -3.428243420284    -0.328960955725     0.178464222375    12.000000000000
         H            0.207668579716    -2.481561955725    -0.295403777625     1.007825032230
         H            3.506524579716     0.294747044275     0.200126222375     1.007825032230
         H            2.903171579716    -2.351791955725    -0.077845777625     1.007825032230
         H            0.683710579716     2.317038044275     0.989116222375     1.007825032230
         H            2.375105579716     2.345849044275     0.420447222375     1.007825032230
         H            1.017524579716     2.457608044275    -0.741386777625     1.007825032230
         H           -1.742345420284    -1.550850955725     0.626113222375     1.007825032230
         H           -4.043203420284    -1.219868955725     0.038915222375     1.007825032230
         H           -3.613479420284     0.372122044275    -0.634722777625     1.007825032230
         H           -3.703492420284     0.157534044275     1.121117222375     1.007825032230

  Running in c1 symmetry.

  Rotational constants: A =      0.08795  B =      0.03251  C =      0.02429 [cm^-1]
  Rotational constants: A =   2636.52776  B =    974.64686  C =    728.16754 [MHz]
  Nuclear repulsion =  523.755758373726849

  Charge       = 0
  Multiplicity = 1
  Electrons    = 74
  Nalpha       = 37
  Nbeta        = 37

  ==> Algorithm <==

  SCF Algorithm Type is DF.
  DIIS enabled.
  MOM disabled.
  Fractional occupation disabled.
  Guess Type is SAD.
  Energy threshold   = 1.00e-10
  Density threshold  = 1.00e-10
  Integral threshold = 1.00e-12

  ==> Primary Basis <==

  Basis Set: AUG-CC-PVTZ
    Blend: AUG-CC-PVTZ
    Number of shells: 230
    Number of basis functions: 690
    Number of Cartesian functions: 800
    Spherical Harmonics?: true
    Max angular momentum: 3

   => Loading Basis Set <=

    Name: (AUG-CC-PVTZ AUX)
    Role: JKFIT
    Keyword: DF_BASIS_SCF
    atoms 1     entry O          line   286 file /home1/07844/xy3866/miniconda3/envs/p4env/share/psi4/basis/aug-cc-pvtz-jkfit.gbs 
    atoms 2-3   entry N          line   224 file /home1/07844/xy3866/miniconda3/envs/p4env/share/psi4/basis/aug-cc-pvtz-jkfit.gbs 
    atoms 4-10  entry C          line   162 file /home1/07844/xy3866/miniconda3/envs/p4env/share/psi4/basis/aug-cc-pvtz-jkfit.gbs 
    atoms 11-20 entry H          line    70 file /home1/07844/xy3866/miniconda3/envs/p4env/share/psi4/basis/aug-cc-pvtz-jkfit.gbs 

  ==> Integral Setup <==

  DFHelper Memory: AOs need 4.967 GiB; user supplied 22.352 GiB. Using in-core AOs.

  ==> MemDFJK: Density-Fitted J/K Matrices <==

    J tasked:                   Yes
    K tasked:                   Yes
    wK tasked:                   No
    OpenMP threads:              32
    Memory [MiB]:             22888
    Algorithm:                 Core
    Schwarz Cutoff:           1E-12
    Mask sparsity (%):      10.8910
    Fitting Condition:        1E-10

   => Auxiliary Basis Set <=

  Basis Set: (AUG-CC-PVTZ AUX)
    Blend: AUG-CC-PVTZ-JKFIT
    Number of shells: 440
    Number of basis functions: 1500
    Number of Cartesian functions: 1860
    Spherical Harmonics?: true
    Max angular momentum: 4

  Minimum eigenvalue in the overlap matrix is 1.6616864609E-06.
  Reciprocal condition number of the overlap matrix is 8.7438418206E-08.
    Using symmetric orthogonalization.

  ==> Pre-Iterations <==

  SCF Guess: Superposition of Atomic Densities via on-the-fly atomic UHF (no occupation information).

   -------------------------
    Irrep   Nso     Nmo    
   -------------------------
     A        690     690 
   -------------------------
    Total     690     690
   -------------------------

  ==> Iterations <==

                           Total Energy        Delta E     RMS |[F,P]|

   @DF-RHF iter SAD:  -454.33448763590661   -4.54334e+02   0.00000e+00 
   @DF-RHF iter   1:  -454.51793777510943   -1.83450e-01   1.06963e-03 DIIS
   @DF-RHF iter   2:  -454.75159127559112   -2.33654e-01   5.75487e-04 DIIS
   @DF-RHF iter   3:  -454.81200094249596   -6.04097e-02   1.30928e-04 DIIS
   @DF-RHF iter   4:  -454.81642550176764   -4.42456e-03   5.43692e-05 DIIS
   @DF-RHF iter   5:  -454.81721929809896   -7.93796e-04   1.12404e-05 DIIS
   @DF-RHF iter   6:  -454.81728609841508   -6.68003e-05   5.27241e-06 DIIS
   @DF-RHF iter   7:  -454.81730286948851   -1.67711e-05   1.93644e-06 DIIS
   @DF-RHF iter   8:  -454.81730649827347   -3.62878e-06   7.51429e-07 DIIS
   @DF-RHF iter   9:  -454.81730696220467   -4.63931e-07   3.42661e-07 DIIS
   @DF-RHF iter  10:  -454.81730702779527   -6.55906e-08   1.03845e-07 DIIS
   @DF-RHF iter  11:  -454.81730703577983   -7.98457e-09   4.22497e-08 DIIS
   @DF-RHF iter  12:  -454.81730703673247   -9.52639e-10   1.48665e-08 DIIS
   @DF-RHF iter  13:  -454.81730703690221   -1.69734e-10   5.55668e-09 DIIS
   @DF-RHF iter  14:  -454.81730703692375   -2.15437e-11   2.47742e-09 DIIS
   @DF-RHF iter  15:  -454.81730703692955   -5.79803e-12   1.05213e-09 DIIS
   @DF-RHF iter  16:  -454.81730703692881    7.38964e-13   5.27532e-10 DIIS
   @DF-RHF iter  17:  -454.81730703692961   -7.95808e-13   1.45513e-10 DIIS
   @DF-RHF iter  18:  -454.81730703692944    1.70530e-13   5.05797e-11 DIIS
  Energy and wave function converged.


  ==> Post-Iterations <==

    Orbital Energies [Eh]
    ---------------------

    Doubly Occupied:                                                      

       1A    -20.516540     2A    -15.621949     3A    -15.583430  
       4A    -11.355540     5A    -11.268649     6A    -11.264616  
       7A    -11.262289     8A    -11.257488     9A    -11.234527  
      10A    -11.222214    11A     -1.373118    12A     -1.314992  
      13A     -1.226165    14A     -1.089894    15A     -1.017900  
      16A     -0.942428    17A     -0.935138    18A     -0.826337  
      19A     -0.789958    20A     -0.763337    21A     -0.729503  
      22A     -0.652836    23A     -0.643792    24A     -0.635818  
      25A     -0.617376    26A     -0.592169    27A     -0.589573  
      28A     -0.573732    29A     -0.552226    30A     -0.546708  
      31A     -0.533360    32A     -0.526063    33A     -0.509914  
      34A     -0.429478    35A     -0.393553    36A     -0.347819  
      37A     -0.308302  

    Virtual:                                                              

      38A      0.025832    39A      0.029752    40A      0.034872  
      41A      0.043550    42A      0.045431    43A      0.048241  
      44A      0.057198    45A      0.060847    46A      0.065614  
      47A      0.070627    48A      0.086807    49A      0.091478  
      50A      0.093475    51A      0.110773    52A      0.111969  
      53A      0.115567    54A      0.116675    55A      0.118113  
      56A      0.120100    57A      0.125652    58A      0.130300  
      59A      0.132461    60A      0.137105    61A      0.140509  
      62A      0.142969    63A      0.145857    64A      0.148706  
      65A      0.159484    66A      0.162729    67A      0.167100  
      68A      0.171513    69A      0.174015    70A      0.180019  
      71A      0.195081    72A      0.197784    73A      0.206255  
      74A      0.207308    75A      0.218489    76A      0.228766  
      77A      0.232469    78A      0.238848    79A      0.242643  
      80A      0.247445    81A      0.252946    82A      0.256529  
      83A      0.260830    84A      0.263607    85A      0.268730  
      86A      0.275979    87A      0.283396    88A      0.288756  
      89A      0.294782    90A      0.301590    91A      0.303623  
      92A      0.309049    93A      0.311658    94A      0.319356  
      95A      0.323414    96A      0.331475    97A      0.332915  
      98A      0.337658    99A      0.342581   100A      0.344905  
     101A      0.349813   102A      0.353626   103A      0.359206  
     104A      0.362589   105A      0.367728   106A      0.373310  
     107A      0.376697   108A      0.381960   109A      0.386846  
     110A      0.390725   111A      0.396172   112A      0.398031  
     113A      0.401217   114A      0.403324   115A      0.406844  
     116A      0.414849   117A      0.421884   118A      0.426195  
     119A      0.435751   120A      0.438737   121A      0.447225  
     122A      0.453477   123A      0.454492   124A      0.457848  
     125A      0.463599   126A      0.467590   127A      0.468762  
     128A      0.475592   129A      0.481422   130A      0.483063  
     131A      0.486381   132A      0.487915   133A      0.493099  
     134A      0.495802   135A      0.505646   136A      0.510631  
     137A      0.512851   138A      0.517599   139A      0.520984  
     140A      0.523963   141A      0.528251   142A      0.533833  
     143A      0.534074   144A      0.542765   145A      0.544040  
     146A      0.549044   147A      0.554337   148A      0.563174  
     149A      0.564888   150A      0.571358   151A      0.577369  
     152A      0.583721   153A      0.589662   154A      0.595550  
     155A      0.598443   156A      0.611497   157A      0.614459  
     158A      0.620766   159A      0.628749   160A      0.638369  
     161A      0.643868   162A      0.648390   163A      0.656529  
     164A      0.663863   165A      0.675658   166A      0.676879  
     167A      0.691501   168A      0.697374   169A      0.703717  
     170A      0.712427   171A      0.712639   172A      0.722007  
     173A      0.728389   174A      0.732619   175A      0.743470  
     176A      0.756944   177A      0.759325   178A      0.765827  
     179A      0.774042   180A      0.778523   181A      0.784866  
     182A      0.790870   183A      0.806743   184A      0.812214  
     185A      0.819237   186A      0.823783   187A      0.832893  
     188A      0.835987   189A      0.848547   190A      0.857870  
     191A      0.860914   192A      0.867294   193A      0.874424  
     194A      0.876507   195A      0.879149   196A      0.892771  
     197A      0.895108   198A      0.902692   199A      0.911167  
     200A      0.911723   201A      0.917641   202A      0.923927  
     203A      0.924857   204A      0.936823   205A      0.937772  
     206A      0.940059   207A      0.948481   208A      0.953330  
     209A      0.958182   210A      0.963783   211A      0.966595  
     212A      0.969456   213A      0.982049   214A      0.986355  
     215A      0.991252   216A      1.000866   217A      1.004498  
     218A      1.014044   219A      1.017478   220A      1.024342  
     221A      1.027959   222A      1.029812   223A      1.038011  
     224A      1.040525   225A      1.054894   226A      1.056396  
     227A      1.061168   228A      1.071087   229A      1.074366  
     230A      1.075891   231A      1.083700   232A      1.084764  
     233A      1.090031   234A      1.100291   235A      1.109618  
     236A      1.118244   237A      1.121885   238A      1.122400  
     239A      1.129598   240A      1.139509   241A      1.146345  
     242A      1.150923   243A      1.157590   244A      1.162113  
     245A      1.168139   246A      1.168763   247A      1.177744  
     248A      1.182057   249A      1.188930   250A      1.196059  
     251A      1.199872   252A      1.211082   253A      1.215304  
     254A      1.217015   255A      1.219532   256A      1.232193  
     257A      1.234574   258A      1.241852   259A      1.246164  
     260A      1.248142   261A      1.254998   262A      1.269740  
     263A      1.276086   264A      1.286833   265A      1.298246  
     266A      1.311236   267A      1.317658   268A      1.328114  
     269A      1.330178   270A      1.335933   271A      1.342772  
     272A      1.359911   273A      1.363349   274A      1.373159  
     275A      1.379431   276A      1.390896   277A      1.393523  
     278A      1.400985   279A      1.409228   280A      1.414267  
     281A      1.423923   282A      1.432059   283A      1.433827  
     284A      1.439200   285A      1.447231   286A      1.454493  
     287A      1.465583   288A      1.474376   289A      1.487892  
     290A      1.494369   291A      1.501674   292A      1.510067  
     293A      1.518267   294A      1.522969   295A      1.525754  
     296A      1.532320   297A      1.541166   298A      1.551423  
     299A      1.561464   300A      1.567462   301A      1.577331  
     302A      1.597581   303A      1.602225   304A      1.607404  
     305A      1.613740   306A      1.615725   307A      1.622403  
     308A      1.633040   309A      1.634451   310A      1.647027  
     311A      1.657960   312A      1.663527   313A      1.669211  
     314A      1.671167   315A      1.683746   316A      1.696051  
     317A      1.698345   318A      1.708642   319A      1.712401  
     320A      1.723036   321A      1.730421   322A      1.739423  
     323A      1.748607   324A      1.754509   325A      1.771848  
     326A      1.774028   327A      1.783213   328A      1.790170  
     329A      1.800027   330A      1.818184   331A      1.825989  
     332A      1.837738   333A      1.849363   334A      1.855806  
     335A      1.863032   336A      1.871693   337A      1.880747  
     338A      1.883695   339A      1.899968   340A      1.909052  
     341A      1.915316   342A      1.924715   343A      1.937000  
     344A      1.944017   345A      1.963107   346A      1.970634  
     347A      1.981184   348A      1.984610   349A      1.993918  
     350A      2.007569   351A      2.015454   352A      2.021892  
     353A      2.024511   354A      2.029760   355A      2.044729  
     356A      2.049200   357A      2.071410   358A      2.075169  
     359A      2.082159   360A      2.087936   361A      2.100596  
     362A      2.112142   363A      2.130142   364A      2.134771  
     365A      2.148762   366A      2.163541   367A      2.175561  
     368A      2.182717   369A      2.191549   370A      2.204691  
     371A      2.210099   372A      2.211876   373A      2.226285  
     374A      2.240363   375A      2.245345   376A      2.254343  
     377A      2.258148   378A      2.273449   379A      2.279744  
     380A      2.296115   381A      2.304527   382A      2.329498  
     383A      2.335315   384A      2.342982   385A      2.358895  
     386A      2.369001   387A      2.376791   388A      2.388505  
     389A      2.405762   390A      2.415286   391A      2.431932  
     392A      2.444260   393A      2.453112   394A      2.459090  
     395A      2.481340   396A      2.512381   397A      2.515264  
     398A      2.519753   399A      2.542768   400A      2.558221  
     401A      2.573875   402A      2.583672   403A      2.601030  
     404A      2.617571   405A      2.633241   406A      2.635907  
     407A      2.664698   408A      2.672085   409A      2.687005  
     410A      2.693400   411A      2.708109   412A      2.715039  
     413A      2.740832   414A      2.763455   415A      2.770275  
     416A      2.790451   417A      2.823890   418A      2.851708  
     419A      2.856841   420A      2.874998   421A      2.880849  
     422A      2.887202   423A      2.908643   424A      2.957725  
     425A      2.971349   426A      3.003547   427A      3.015226  
     428A      3.035697   429A      3.083759   430A      3.098274  
     431A      3.122210   432A      3.134468   433A      3.180171  
     434A      3.181401   435A      3.230151   436A      3.256462  
     437A      3.277435   438A      3.288558   439A      3.301448  
     440A      3.324893   441A      3.329865   442A      3.332770  
     443A      3.364848   444A      3.387857   445A      3.396674  
     446A      3.399503   447A      3.432509   448A      3.446963  
     449A      3.451604   450A      3.456483   451A      3.498508  
     452A      3.503922   453A      3.513404   454A      3.527143  
     455A      3.538885   456A      3.552593   457A      3.559416  
     458A      3.569557   459A      3.582634   460A      3.588422  
     461A      3.607602   462A      3.615275   463A      3.624441  
     464A      3.633049   465A      3.653546   466A      3.665738  
     467A      3.676097   468A      3.680991   469A      3.693061  
     470A      3.715848   471A      3.724030   472A      3.731123  
     473A      3.741145   474A      3.742455   475A      3.767193  
     476A      3.770354   477A      3.791983   478A      3.803812  
     479A      3.812341   480A      3.827236   481A      3.829761  
     482A      3.841781   483A      3.859843   484A      3.881320  
     485A      3.882784   486A      3.893434   487A      3.900995  
     488A      3.905324   489A      3.917089   490A      3.926333  
     491A      3.928456   492A      3.939783   493A      3.951397  
     494A      3.955411   495A      3.967743   496A      3.971705  
     497A      3.998528   498A      4.005736   499A      4.017394  
     500A      4.035567   501A      4.044757   502A      4.051900  
     503A      4.064212   504A      4.071034   505A      4.080458  
     506A      4.094988   507A      4.099884   508A      4.100891  
     509A      4.128715   510A      4.142109   511A      4.148693  
     512A      4.157466   513A      4.167713   514A      4.175961  
     515A      4.183892   516A      4.194529   517A      4.215196  
     518A      4.217918   519A      4.231508   520A      4.245023  
     521A      4.251642   522A      4.266246   523A      4.276573  
     524A      4.279236   525A      4.283273   526A      4.292135  
     527A      4.303611   528A      4.309116   529A      4.336884  
     530A      4.341166   531A      4.351028   532A      4.369935  
     533A      4.374754   534A      4.388415   535A      4.416319  
     536A      4.440607   537A      4.446771   538A      4.463112  
     539A      4.474009   540A      4.486074   541A      4.498326  
     542A      4.500640   543A      4.531614   544A      4.540554  
     545A      4.560572   546A      4.564329   547A      4.596748  
     548A      4.604969   549A      4.622914   550A      4.638652  
     551A      4.660968   552A      4.672372   553A      4.677073  
     554A      4.698926   555A      4.702828   556A      4.723013  
     557A      4.744203   558A      4.763404   559A      4.790654  
     560A      4.795895   561A      4.800502   562A      4.820872  
     563A      4.826025   564A      4.834831   565A      4.843902  
     566A      4.848564   567A      4.863234   568A      4.888503  
     569A      4.898952   570A      4.918600   571A      4.929394  
     572A      4.937706   573A      4.955693   574A      4.970474  
     575A      4.985211   576A      5.002822   577A      5.008091  
     578A      5.022209   579A      5.033950   580A      5.044794  
     581A      5.067535   582A      5.069187   583A      5.083750  
     584A      5.096658   585A      5.110844   586A      5.133386  
     587A      5.147569   588A      5.168905   589A      5.183282  
     590A      5.188243   591A      5.195051   592A      5.206226  
     593A      5.220631   594A      5.227643   595A      5.280346  
     596A      5.295121   597A      5.321531   598A      5.322920  
     599A      5.356159   600A      5.373673   601A      5.396943  
     602A      5.425092   603A      5.440053   604A      5.443788  
     605A      5.453524   606A      5.475140   607A      5.515650  
     608A      5.536051   609A      5.540256   610A      5.557210  
     611A      5.577310   612A      5.608052   613A      5.631482  
     614A      5.638047   615A      5.662417   616A      5.690587  
     617A      5.708039   618A      5.719848   619A      5.756522  
     620A      5.772496   621A      5.792359   622A      5.803528  
     623A      5.812294   624A      5.834973   625A      5.857886  
     626A      5.875742   627A      5.908510   628A      5.926585  
     629A      5.978904   630A      5.992962   631A      6.029410  
     632A      6.051263   633A      6.082053   634A      6.099754  
     635A      6.141772   636A      6.173776   637A      6.185149  
     638A      6.197153   639A      6.198819   640A      6.221054  
     641A      6.235263   642A      6.246749   643A      6.324953  
     644A      6.342158   645A      6.352953   646A      6.400585  
     647A      6.458441   648A      6.512184   649A      6.527174  
     650A      6.582825   651A      6.640472   652A      6.688723  
     653A      6.717452   654A      6.744001   655A      6.772647  
     656A      6.784084   657A      6.827786   658A      6.835933  
     659A      6.840183   660A      6.872342   661A      6.938075  
     662A      6.961703   663A      6.988373   664A      7.023912  
     665A      7.065593   666A      7.091405   667A      7.102456  
     668A      7.210225   669A      7.244266   670A      7.257666  
     671A      7.283026   672A      7.313374   673A      7.476983  
     674A      7.515564   675A      7.641763   676A      7.780360  
     677A      7.800546   678A      7.849998   679A      7.971505  
     680A      8.090544   681A     15.483005   682A     16.594917  
     683A     16.950777   684A     17.429926   685A     18.340368  
     686A     18.573373   687A     19.133109   688A     20.007422  
     689A     20.318840   690A     20.715086  

    Final Occupation by Irrep:
              A 
    DOCC [    37 ]

  @DF-RHF Final Energy:  -454.81730703692944

   => Energetics <=

    Nuclear Repulsion Energy =            523.7557583737268487
    One-Electron Energy =               -1657.0486607604805158
    Two-Electron Energy =                 678.4755953498242889
    Total Energy =                       -454.8173070369293782

Computation Completed

*** tstop() called on c446-101.stampede2.tacc.utexas.edu at Sat Mar 20 03:01:11 2021
Module time:
	user time   =     725.72 seconds =      12.10 minutes
	system time =      50.23 seconds =       0.84 minutes
	total time  =         40 seconds =       0.67 minutes
Total time:
	user time   =     725.72 seconds =      12.10 minutes
	system time =      50.23 seconds =       0.84 minutes
	total time  =         40 seconds =       0.67 minutes
   => Loading Basis Set <=

    Name: (AUG-CC-PVTZ AUX)
    Role: RIFIT
    Keyword: DF_BASIS_MP2
    atoms 1     entry O          line   264 file /home1/07844/xy3866/miniconda3/envs/p4env/share/psi4/basis/aug-cc-pvtz-ri.gbs 
    atoms 2-3   entry N          line   206 file /home1/07844/xy3866/miniconda3/envs/p4env/share/psi4/basis/aug-cc-pvtz-ri.gbs 
    atoms 4-10  entry C          line   148 file /home1/07844/xy3866/miniconda3/envs/p4env/share/psi4/basis/aug-cc-pvtz-ri.gbs 
    atoms 11-20 entry H          line    30 file /home1/07844/xy3866/miniconda3/envs/p4env/share/psi4/basis/aug-cc-pvtz-ri.gbs 


*** tstart() called on c446-101.stampede2.tacc.utexas.edu
*** at Sat Mar 20 03:01:12 2021


  //>>>>>>>>>>>>>>>>>>>>>>>>>>>>>>>>>>>//
  //               DFMP2               //
  //<<<<<<<<<<<<<<<<<<<<<<<<<<<<<<<<<<<//

	 --------------------------------------------------------
	                          DF-MP2                         
	      2nd-Order Density-Fitted Moller-Plesset Theory     
	              RMP2 Wavefunction,  32 Threads             
	                                                         
	        Rob Parrish, Justin Turney, Andy Simmonett,      
	           Ed Hohenstein, and C. David Sherrill          
	 --------------------------------------------------------

   => Auxiliary Basis Set <=

  Basis Set: (AUG-CC-PVTZ AUX)
    Blend: AUG-CC-PVTZ-RI
    Number of shells: 420
    Number of basis functions: 1520
    Number of Cartesian functions: 1910
    Spherical Harmonics?: true
    Max angular momentum: 4

	 --------------------------------------------------------
	                 NBF =   690, NAUX =  1520
	 --------------------------------------------------------
	   CLASS    FOCC     OCC    AOCC    AVIR     VIR    FVIR
	   PAIRS       0      37      37     653     653       0
	 --------------------------------------------------------

  DFHelper Memory: AOs need 5.187 GiB; user supplied 22.352 GiB. Using in-core AOs.


         ------------------------------------------------------------
                                     CPHF                           
                                  Rob Parrish                       
         ------------------------------------------------------------

  ==> Geometry <==

    Molecular point group: c1
    Full point group: C1

    Geometry (in Angstrom), charge = 0, multiplicity = 1:

       Center              X                  Y                   Z               Mass       
    ------------   -----------------  -----------------  -----------------  -----------------
         O           -1.343013420284     1.404986044275    -0.393039777625    15.994914619570
         N            1.393318579716     0.558024044275     0.083216222375    14.003074004430
         N           -2.028346420284    -0.710067955725     0.142426222375    14.003074004430
         C            0.311747579716    -0.285331955725    -0.052496777625    12.000000000000
         C            0.803781579716    -1.591548955725    -0.133372777625    12.000000000000
         C            2.542911579716    -0.186331955725     0.094205222375    12.000000000000
         C            2.206232579716    -1.524708955725    -0.041805777625    12.000000000000
         C           -1.065334420284     0.229362044275    -0.110756777625    12.000000000000
         C            1.362353779716     1.963600644275     0.188061822375    12.000000000000
         C           -3.428243420284    -0.328960955725     0.178464222375    12.000000000000
         H            0.207668579716    -2.481561955725    -0.295403777625     1.007825032230
         H            3.506524579716     0.294747044275     0.200126222375     1.007825032230
         H            2.903171579716    -2.351791955725    -0.077845777625     1.007825032230
         H            0.683710579716     2.317038044275     0.989116222375     1.007825032230
         H            2.375105579716     2.345849044275     0.420447222375     1.007825032230
         H            1.017524579716     2.457608044275    -0.741386777625     1.007825032230
         H           -1.742345420284    -1.550850955725     0.626113222375     1.007825032230
         H           -4.043203420284    -1.219868955725     0.038915222375     1.007825032230
         H           -3.613479420284     0.372122044275    -0.634722777625     1.007825032230
         H           -3.703492420284     0.157534044275     1.121117222375     1.007825032230

  Nuclear repulsion =  523.755758373726849
  Reference energy  = -454.817307036929435

  ==> Basis Set <==

  Basis Set: AUG-CC-PVTZ
    Blend: AUG-CC-PVTZ
    Number of shells: 230
    Number of basis functions: 690
    Number of Cartesian functions: 800
    Spherical Harmonics?: true
    Max angular momentum: 3

  ==> CGRSolver (by Rob Parrish) <==

   Number of roots    =         1
   Preconditioning    =    JACOBI
   Convergence cutoff =     1E-06
   Maximum iterations =       100

  ==> CPHFRHamiltonian (by Rob Parrish) <== 

  ==> MemDFJK: Density-Fitted J/K Matrices <==

    J tasked:                   Yes
    K tasked:                   Yes
    wK tasked:                   No
    OpenMP threads:              32
    Memory [MiB]:             22888
    Algorithm:                 Core
    Schwarz Cutoff:           1E-12
    Mask sparsity (%):       6.7666
    Fitting Condition:        1E-10

   => Auxiliary Basis Set <=

  Basis Set: (AUG-CC-PVTZ AUX)
    Blend: AUG-CC-PVTZ-JKFIT
    Number of shells: 440
    Number of basis functions: 1500
    Number of Cartesian functions: 1860
    Spherical Harmonics?: true
    Max angular momentum: 4

  ==> CPHF Iterations <==

  => Iterations <=

             Iter  Converged  Remaining    Residual
  CGR           1          0          1   1.191E-01
  CGR           2          0          1   4.131E-02
  CGR           3          0          1   1.989E-02
  CGR           4          0          1   6.741E-03
  CGR           5          0          1   2.818E-03
  CGR           6          0          1   1.140E-03
  CGR           7          0          1   3.310E-04
  CGR           8          0          1   1.147E-04
  CGR           9          0          1   4.894E-05
  CGR          10          0          1   2.085E-05
  CGR          11          0          1   8.569E-06
  CGR          12          0          1   3.099E-06
  CGR          13          0          1   1.212E-06
  CGR          14          1          0   4.171E-07

    CGRSolver converged.

	-----------------------------------------------------------
	 ==================> DF-MP2 Energies <==================== 
	-----------------------------------------------------------
	 Reference Energy          =    -454.8173070369294351 [Eh]
	 Singles Energy            =      -0.0000000000000000 [Eh]
	 Same-Spin Energy          =      -0.4856182609442176 [Eh]
	 Opposite-Spin Energy      =      -1.5170710794723030 [Eh]
	 Correlation Energy        =      -2.0026893404165205 [Eh]
	 Total Energy              =    -456.8199963773459444 [Eh]
	-----------------------------------------------------------
	 ================> DF-SCS-MP2 Energies <================== 
	-----------------------------------------------------------
	 SCS Same-Spin Scale       =       0.3333333333333333 [-]
	 SCS Opposite-Spin Scale   =       1.2000000000000000 [-]
	 SCS Same-Spin Energy      =      -0.1618727536480725 [Eh]
	 SCS Opposite-Spin Energy  =      -1.8204852953667636 [Eh]
	 SCS Correlation Energy    =      -1.9823580490148363 [Eh]
	 SCS Total Energy          =    -456.7996650859442980 [Eh]
	-----------------------------------------------------------



Properties will be evaluated at   0.000000,   0.000000,  -0.000000 [a0]

Properties computed using the MP2 density matrix

  Nuclear Dipole Moment: [e a0]
     X:    -2.2628      Y:     0.3267      Z:     1.5410

  Electronic Dipole Moment: [e a0]
     X:     2.3701      Y:    -0.8472      Z:    -1.0114

  Dipole Moment: [e a0]
     X:     0.1073      Y:    -0.5205      Z:     0.5296     Total:     0.7503

  Dipole Moment: [D]
     X:     0.2728      Y:    -1.3229      Z:     1.3461     Total:     1.9070


*** tstop() called on c446-101.stampede2.tacc.utexas.edu at Sat Mar 20 03:05:03 2021
Module time:
	user time   =    2121.27 seconds =      35.35 minutes
	system time =      69.38 seconds =       1.16 minutes
	total time  =        231 seconds =       3.85 minutes
Total time:
	user time   =    2847.99 seconds =      47.47 minutes
	system time =     119.63 seconds =       1.99 minutes
	total time  =        272 seconds =       4.53 minutes

    Psi4 stopped on: Saturday, 20 March 2021 03:05AM
    Psi4 wall time for execution: 0:04:32.62

*** Psi4 exiting successfully. Buy a developer a beer!
