
    -----------------------------------------------------------------------
          Psi4: An Open-Source Ab Initio Electronic Structure Package
                               Psi4 1.3.2 release

                         Git: Rev {HEAD} ecbda83 


    R. M. Parrish, L. A. Burns, D. G. A. Smith, A. C. Simmonett,
    A. E. DePrince III, E. G. Hohenstein, U. Bozkaya, A. Yu. Sokolov,
    R. Di Remigio, R. M. Richard, J. F. Gonthier, A. M. James,
    H. R. McAlexander, A. Kumar, M. Saitow, X. Wang, B. P. Pritchard,
    P. Verma, H. F. Schaefer III, K. Patkowski, R. A. King, E. F. Valeev,
    F. A. Evangelista, J. M. Turney, T. D. Crawford, and C. D. Sherrill,
    J. Chem. Theory Comput. 13(7) pp 3185--3197 (2017).
    (doi: 10.1021/acs.jctc.7b00174)


                         Additional Contributions by
    P. Kraus, H. Kruse, M. H. Lechner, M. C. Schieber, R. A. Shaw,
    A. Alenaizan, R. Galvelis, Z. L. Glick, S. Lehtola, and J. P. Misiewicz

    -----------------------------------------------------------------------


    Psi4 started on: Tuesday, 02 February 2021 05:05PM

    Process ID: 579
    Host:       node37.bme.utexas.edu
    PSIDATADIR: /home/xy3866/psi4conda/share/psi4
    Memory:     500.0 MiB
    Threads:    8
    
  ==> Input File <==

--------------------------------------------------------------------------
#psi4
#
memory 32 gb

molecule  {
0 1
  O       -1.3267430     1.3986080    -0.4043610
  N        1.4095890     0.5516460     0.0718950
  N       -2.0120760    -0.7164460     0.1311050
  C        0.3280180    -0.2917100    -0.0638180
  C        0.8200520    -1.5979270    -0.1446940
  C        2.5591820    -0.1927100     0.0828840
  C        2.2225030    -1.5310870    -0.0531270
  C       -1.0490640     0.2229840    -0.1220780
  C        1.3775260     2.0070720     0.1804590
  C       -3.4119730    -0.3353390     0.1671430
  H        0.2789621    -2.4057890    -0.2917690
  H        3.5227950     0.2883690     0.1888050
  H        2.9194420    -2.3581700    -0.0891670
  H        0.6999810     2.3106600     0.9777950
  H        2.3913760     2.3394710     0.4091260
  H        1.0337950     2.4512300    -0.7527080
  H       -1.7260750    -1.5572290     0.6147920
  H       -4.0269330    -1.2262470     0.0275940
  H       -3.5972090     0.3657440    -0.6460440
  H       -3.6872220     0.1511560     1.1097960
units angstrom
no_reorient  #important for SAPT in psi4, default
symmetry c1  #important for SAPT in psi4, default
}

set PROPERTIES_ORIGIN ["COM"]
properties('MP2/aug-cc-pvtz', properties = ['dipole'])
--------------------------------------------------------------------------

  Memory set to  29.802 GiB by Python driver.
    SCF Algorithm Type (re)set to DF.

*** tstart() called on node37.bme.utexas.edu
*** at Tue Feb  2 17:05:37 2021

   => Loading Basis Set <=

    Name: AUG-CC-PVTZ
    Role: ORBITAL
    Keyword: BASIS
    atoms 1     entry O          line   327 file /home/xy3866/psi4conda/share/psi4/basis/aug-cc-pvtz.gbs 
    atoms 2-3   entry N          line   281 file /home/xy3866/psi4conda/share/psi4/basis/aug-cc-pvtz.gbs 
    atoms 4-10  entry C          line   235 file /home/xy3866/psi4conda/share/psi4/basis/aug-cc-pvtz.gbs 
    atoms 11-20 entry H          line    36 file /home/xy3866/psi4conda/share/psi4/basis/aug-cc-pvtz.gbs 


         ---------------------------------------------------------
                                   SCF
               by Justin Turney, Rob Parrish, Andy Simmonett
                          and Daniel G. A. Smith
                              RHF Reference
                        8 Threads,  30517 MiB Core
         ---------------------------------------------------------

  ==> Geometry <==

    Molecular point group: c1
    Full point group: C1

    Geometry (in Angstrom), charge = 0, multiplicity = 1:

       Center              X                  Y                   Z               Mass       
    ------------   -----------------  -----------------  -----------------  -----------------
         O           -1.343319586766     1.400054193010    -0.393472093153    15.994914619570
         N            1.393012413234     0.553092193010     0.082783906847    14.003074004430
         N           -2.028652586766    -0.714999806990     0.141993906847    14.003074004430
         C            0.311441413234    -0.290263806990    -0.052929093153    12.000000000000
         C            0.803475413234    -1.596480806990    -0.133805093153    12.000000000000
         C            2.542605413234    -0.191263806990     0.093772906847    12.000000000000
         C            2.205926413234    -1.529640806990    -0.042238093153    12.000000000000
         C           -1.065640586766     0.224430193010    -0.111189093153    12.000000000000
         C            1.360949413234     2.008518193010     0.191347906847    12.000000000000
         C           -3.428549586766    -0.333892806990     0.178031906847    12.000000000000
         H            0.262385513234    -2.404342806990    -0.280880093153     1.007825032230
         H            3.506218413234     0.289815193010     0.199693906847     1.007825032230
         H            2.902865413234    -2.356723806990    -0.078278093153     1.007825032230
         H            0.683404413234     2.312106193010     0.988683906847     1.007825032230
         H            2.374799413234     2.340917193010     0.420014906847     1.007825032230
         H            1.017218413234     2.452676193010    -0.741819093153     1.007825032230
         H           -1.742651586766    -1.555782806990     0.625680906847     1.007825032230
         H           -4.043509586766    -1.224800806990     0.038482906847     1.007825032230
         H           -3.613785586766     0.367190193010    -0.635155093153     1.007825032230
         H           -3.703798586766     0.152602193010     1.120684906847     1.007825032230

  Running in c1 symmetry.

  Rotational constants: A =      0.08703  B =      0.03251  C =      0.02422 [cm^-1]
  Rotational constants: A =   2609.07617  B =    974.71545  C =    726.11731 [MHz]
  Nuclear repulsion =  523.295759836394836

  Charge       = 0
  Multiplicity = 1
  Electrons    = 74
  Nalpha       = 37
  Nbeta        = 37

  ==> Algorithm <==

  SCF Algorithm Type is DF.
  DIIS enabled.
  MOM disabled.
  Fractional occupation disabled.
  Guess Type is SAD.
  Energy threshold   = 1.00e-10
  Density threshold  = 1.00e-10
  Integral threshold = 0.00e+00

  ==> Primary Basis <==

  Basis Set: AUG-CC-PVTZ
    Blend: AUG-CC-PVTZ
    Number of shells: 230
    Number of basis function: 690
    Number of Cartesian functions: 800
    Spherical Harmonics?: true
    Max angular momentum: 3

   => Loading Basis Set <=

    Name: (AUG-CC-PVTZ AUX)
    Role: JKFIT
    Keyword: DF_BASIS_SCF
    atoms 1     entry O          line   286 file /home/xy3866/psi4conda/share/psi4/basis/aug-cc-pvtz-jkfit.gbs 
    atoms 2-3   entry N          line   224 file /home/xy3866/psi4conda/share/psi4/basis/aug-cc-pvtz-jkfit.gbs 
    atoms 4-10  entry C          line   162 file /home/xy3866/psi4conda/share/psi4/basis/aug-cc-pvtz-jkfit.gbs 
    atoms 11-20 entry H          line    70 file /home/xy3866/psi4conda/share/psi4/basis/aug-cc-pvtz-jkfit.gbs 

  ==> Pre-Iterations <==

   -------------------------------------------------------
    Irrep   Nso     Nmo     Nalpha   Nbeta   Ndocc  Nsocc
   -------------------------------------------------------
     A        690     690       0       0       0       0
   -------------------------------------------------------
    Total     690     690      37      37      37       0
   -------------------------------------------------------

  ==> Integral Setup <==

  DFHelper Memory: AOs need 5.101 GiB; user supplied 22.352 GiB. Using in-core AOs.

  ==> MemDFJK: Density-Fitted J/K Matrices <==

    J tasked:                   Yes
    K tasked:                   Yes
    wK tasked:                   No
    OpenMP threads:               8
    Memory [MiB]:             22888
    Algorithm:                 Disk
    Schwarz Cutoff:           1E-12
    Mask sparsity (%):       6.7721
    Fitting Condition:        1E-10

   => Auxiliary Basis Set <=

  Basis Set: (AUG-CC-PVTZ AUX)
    Blend: AUG-CC-PVTZ-JKFIT
    Number of shells: 440
    Number of basis function: 1500
    Number of Cartesian functions: 1860
    Spherical Harmonics?: true
    Max angular momentum: 4

  Minimum eigenvalue in the overlap matrix is 1.7302063897E-06.
  Using Symmetric Orthogonalization.

  SCF Guess: Superposition of Atomic Densities via on-the-fly atomic UHF.

  ==> Iterations <==

                           Total Energy        Delta E     RMS |[F,P]|

   @DF-RHF iter SAD:  -454.29827332814415   -4.54298e+02   0.00000e+00 
   @DF-RHF iter   1:  -454.51568493051059   -2.17412e-01   1.07111e-03 DIIS
   @DF-RHF iter   2:  -454.74861967111758   -2.32935e-01   5.74777e-04 DIIS
   @DF-RHF iter   3:  -454.80849513755021   -5.98755e-02   1.31810e-04 DIIS
   @DF-RHF iter   4:  -454.81299675397395   -4.50162e-03   5.39930e-05 DIIS
   @DF-RHF iter   5:  -454.81378865829777   -7.91904e-04   1.12779e-05 DIIS
   @DF-RHF iter   6:  -454.81385575345587   -6.70952e-05   5.29718e-06 DIIS
   @DF-RHF iter   7:  -454.81387255019996   -1.67967e-05   1.94711e-06 DIIS
   @DF-RHF iter   8:  -454.81387609940293   -3.54920e-06   7.81980e-07 DIIS
   @DF-RHF iter   9:  -454.81387656406156   -4.64659e-07   3.63767e-07 DIIS
   @DF-RHF iter  10:  -454.81387663936363   -7.53021e-08   1.07487e-07 DIIS
   @DF-RHF iter  11:  -454.81387664845806   -9.09444e-09   4.38779e-08 DIIS
   @DF-RHF iter  12:  -454.81387664954440   -1.08633e-09   1.56972e-08 DIIS
   @DF-RHF iter  13:  -454.81387664974858   -2.04182e-10   6.39655e-09 DIIS
   @DF-RHF iter  14:  -454.81387664977672   -2.81375e-11   2.66419e-09 DIIS
   @DF-RHF iter  15:  -454.81387664978450   -7.78755e-12   1.27572e-09 DIIS
   @DF-RHF iter  16:  -454.81387664978251    1.98952e-12   5.76120e-10 DIIS
   @DF-RHF iter  17:  -454.81387664978655   -4.03588e-12   1.77476e-10 DIIS
   @DF-RHF iter  18:  -454.81387664978467    1.87583e-12   6.24810e-11 DIIS
  Energy and wave function converged.


  ==> Post-Iterations <==

    Orbital Energies [Eh]
    ---------------------

    Doubly Occupied:                                                      

       1A    -20.516234     2A    -15.620443     3A    -15.583307  
       4A    -11.354935     5A    -11.266422     6A    -11.263044  
       7A    -11.262287     8A    -11.257381     9A    -11.221104  
      10A    -11.219544    11A     -1.372402    12A     -1.306288  
      13A     -1.225945    14A     -1.083765    15A     -1.016219  
      16A     -0.942570    17A     -0.940460    18A     -0.827779  
      19A     -0.793172    20A     -0.762049    21A     -0.731587  
      22A     -0.652205    23A     -0.641975    24A     -0.635285  
      25A     -0.617593    26A     -0.599297    27A     -0.582388  
      28A     -0.574054    29A     -0.552430    30A     -0.547235  
      31A     -0.537873    32A     -0.534464    33A     -0.513416  
      34A     -0.429663    35A     -0.393634    36A     -0.347407  
      37A     -0.306246  

    Virtual:                                                              

      38A      0.026019    39A      0.029726    40A      0.034923  
      41A      0.043541    42A      0.045502    43A      0.048203  
      44A      0.057067    45A      0.060860    46A      0.065824  
      47A      0.070659    48A      0.087003    49A      0.091989  
      50A      0.093935    51A      0.111035    52A      0.112442  
      53A      0.114987    54A      0.117064    55A      0.118585  
      56A      0.120416    57A      0.125854    58A      0.130749  
      59A      0.132006    60A      0.137162    61A      0.140589  
      62A      0.142932    63A      0.146229    64A      0.149286  
      65A      0.159221    66A      0.163272    67A      0.167151  
      68A      0.171252    69A      0.173412    70A      0.180339  
      71A      0.195607    72A      0.197262    73A      0.206462  
      74A      0.207492    75A      0.218905    76A      0.228857  
      77A      0.232459    78A      0.239414    79A      0.242147  
      80A      0.247325    81A      0.253209    82A      0.256284  
      83A      0.260923    84A      0.263561    85A      0.269084  
      86A      0.276048    87A      0.284084    88A      0.288961  
      89A      0.295190    90A      0.302163    91A      0.303546  
      92A      0.310025    93A      0.312409    94A      0.320312  
      95A      0.328146    96A      0.331681    97A      0.335587  
      98A      0.337955    99A      0.343127   100A      0.345430  
     101A      0.349688   102A      0.354597   103A      0.359335  
     104A      0.363352   105A      0.368168   106A      0.372569  
     107A      0.374207   108A      0.382211   109A      0.386633  
     110A      0.389992   111A      0.396721   112A      0.398554  
     113A      0.402275   114A      0.403928   115A      0.407853  
     116A      0.415580   117A      0.421725   118A      0.427292  
     119A      0.436793   120A      0.439654   121A      0.449923  
     122A      0.452572   123A      0.456033   124A      0.459899  
     125A      0.462620   126A      0.466727   127A      0.468555  
     128A      0.476419   129A      0.480126   130A      0.482772  
     131A      0.487693   132A      0.488602   133A      0.493049  
     134A      0.496151   135A      0.506025   136A      0.510068  
     137A      0.512259   138A      0.518379   139A      0.520781  
     140A      0.523095   141A      0.529098   142A      0.533074  
     143A      0.536185   144A      0.543082   145A      0.544466  
     146A      0.548630   147A      0.554005   148A      0.563440  
     149A      0.568473   150A      0.570416   151A      0.577870  
     152A      0.582673   153A      0.589168   154A      0.594997  
     155A      0.597643   156A      0.609833   157A      0.616332  
     158A      0.618816   159A      0.628685   160A      0.639122  
     161A      0.643481   162A      0.646943   163A      0.656949  
     164A      0.663235   165A      0.674569   166A      0.678337  
     167A      0.690749   168A      0.698500   169A      0.704972  
     170A      0.712648   171A      0.714937   172A      0.723788  
     173A      0.730804   174A      0.734630   175A      0.744709  
     176A      0.757126   177A      0.762555   178A      0.766815  
     179A      0.775712   180A      0.778369   181A      0.785226  
     182A      0.791884   183A      0.807225   184A      0.810257  
     185A      0.818875   186A      0.823283   187A      0.831276  
     188A      0.834777   189A      0.846036   190A      0.858618  
     191A      0.861406   192A      0.867646   193A      0.874394  
     194A      0.875795   195A      0.880199   196A      0.893659  
     197A      0.896975   198A      0.903511   199A      0.912142  
     200A      0.914445   201A      0.919325   202A      0.922107  
     203A      0.927415   204A      0.936176   205A      0.937552  
     206A      0.941314   207A      0.945227   208A      0.954382  
     209A      0.958370   210A      0.965095   211A      0.967693  
     212A      0.970212   213A      0.981923   214A      0.985828  
     215A      0.990918   216A      1.000415   217A      1.002893  
     218A      1.013281   219A      1.018002   220A      1.019103  
     221A      1.026712   222A      1.029074   223A      1.033722  
     224A      1.040087   225A      1.054742   226A      1.059430  
     227A      1.061059   228A      1.068683   229A      1.075863  
     230A      1.077626   231A      1.081041   232A      1.087223  
     233A      1.091927   234A      1.099046   235A      1.110139  
     236A      1.117966   237A      1.122900   238A      1.126607  
     239A      1.129400   240A      1.140290   241A      1.147456  
     242A      1.152662   243A      1.160108   244A      1.161683  
     245A      1.168140   246A      1.171751   247A      1.180040  
     248A      1.186438   249A      1.190496   250A      1.200160  
     251A      1.205585   252A      1.211410   253A      1.214863  
     254A      1.221169   255A      1.225742   256A      1.234026  
     257A      1.238671   258A      1.245348   259A      1.248839  
     260A      1.251108   261A      1.261680   262A      1.270807  
     263A      1.281029   264A      1.289351   265A      1.300231  
     266A      1.311991   267A      1.316869   268A      1.328854  
     269A      1.331652   270A      1.337121   271A      1.346603  
     272A      1.361769   273A      1.366034   274A      1.376878  
     275A      1.382570   276A      1.390682   277A      1.394431  
     278A      1.406682   279A      1.414607   280A      1.418822  
     281A      1.426594   282A      1.435221   283A      1.435948  
     284A      1.442658   285A      1.452136   286A      1.457284  
     287A      1.464206   288A      1.476411   289A      1.490511  
     290A      1.496227   291A      1.505137   292A      1.512847  
     293A      1.520072   294A      1.522641   295A      1.527952  
     296A      1.537548   297A      1.543249   298A      1.551801  
     299A      1.562023   300A      1.569571   301A      1.578095  
     302A      1.599878   303A      1.603607   304A      1.609489  
     305A      1.614106   306A      1.618168   307A      1.623601  
     308A      1.635093   309A      1.635879   310A      1.645277  
     311A      1.659683   312A      1.664416   313A      1.672766  
     314A      1.675819   315A      1.684529   316A      1.694871  
     317A      1.696989   318A      1.709126   319A      1.714510  
     320A      1.722358   321A      1.731174   322A      1.738912  
     323A      1.749152   324A      1.754987   325A      1.771961  
     326A      1.777822   327A      1.785744   328A      1.791211  
     329A      1.805198   330A      1.821995   331A      1.830370  
     332A      1.838301   333A      1.848399   334A      1.857628  
     335A      1.861394   336A      1.873140   337A      1.878943  
     338A      1.893633   339A      1.900282   340A      1.910586  
     341A      1.912108   342A      1.926683   343A      1.938762  
     344A      1.946458   345A      1.959994   346A      1.972810  
     347A      1.976838   348A      1.985583   349A      1.998828  
     350A      2.016350   351A      2.017006   352A      2.024422  
     353A      2.027699   354A      2.035755   355A      2.041055  
     356A      2.047272   357A      2.072067   358A      2.075696  
     359A      2.085521   360A      2.097063   361A      2.106103  
     362A      2.113443   363A      2.124545   364A      2.133012  
     365A      2.149137   366A      2.158845   367A      2.175796  
     368A      2.186612   369A      2.192421   370A      2.196647  
     371A      2.206917   372A      2.213734   373A      2.223901  
     374A      2.244572   375A      2.251808   376A      2.258995  
     377A      2.261774   378A      2.275232   379A      2.281385  
     380A      2.293838   381A      2.300995   382A      2.328181  
     383A      2.339971   384A      2.353296   385A      2.360235  
     386A      2.372084   387A      2.378122   388A      2.394822  
     389A      2.411892   390A      2.422948   391A      2.424320  
     392A      2.450555   393A      2.452860   394A      2.462253  
     395A      2.481604   396A      2.510840   397A      2.519484  
     398A      2.524442   399A      2.551209   400A      2.566768  
     401A      2.570350   402A      2.586411   403A      2.598402  
     404A      2.622773   405A      2.633467   406A      2.639809  
     407A      2.670330   408A      2.672148   409A      2.688081  
     410A      2.691223   411A      2.708565   412A      2.713348  
     413A      2.731791   414A      2.761963   415A      2.770904  
     416A      2.785830   417A      2.817173   418A      2.845932  
     419A      2.859611   420A      2.862327   421A      2.873954  
     422A      2.881667   423A      2.890489   424A      2.959510  
     425A      2.971347   426A      2.999431   427A      3.015039  
     428A      3.035221   429A      3.089386   430A      3.095462  
     431A      3.125265   432A      3.135699   433A      3.139219  
     434A      3.181009   435A      3.221301   436A      3.256593  
     437A      3.280795   438A      3.290715   439A      3.293988  
     440A      3.310724   441A      3.325030   442A      3.341581  
     443A      3.358013   444A      3.380280   445A      3.386189  
     446A      3.403843   447A      3.423918   448A      3.438815  
     449A      3.447085   450A      3.453162   451A      3.496048  
     452A      3.500523   453A      3.509679   454A      3.516497  
     455A      3.538834   456A      3.547245   457A      3.557478  
     458A      3.568916   459A      3.580451   460A      3.585300  
     461A      3.601387   462A      3.613337   463A      3.625376  
     464A      3.630215   465A      3.650279   466A      3.667146  
     467A      3.670036   468A      3.683168   469A      3.690652  
     470A      3.715558   471A      3.721278   472A      3.726551  
     473A      3.739610   474A      3.747290   475A      3.764684  
     476A      3.769943   477A      3.788781   478A      3.805895  
     479A      3.810366   480A      3.820368   481A      3.828826  
     482A      3.850770   483A      3.862604   484A      3.880247  
     485A      3.883633   486A      3.903765   487A      3.905123  
     488A      3.908487   489A      3.915735   490A      3.930441  
     491A      3.939413   492A      3.944611   493A      3.951028  
     494A      3.955792   495A      3.969951   496A      3.977868  
     497A      3.998024   498A      4.005846   499A      4.014448  
     500A      4.033134   501A      4.042414   502A      4.053673  
     503A      4.070613   504A      4.070849   505A      4.075453  
     506A      4.093862   507A      4.097390   508A      4.108781  
     509A      4.127193   510A      4.142688   511A      4.150374  
     512A      4.159842   513A      4.160843   514A      4.175834  
     515A      4.193333   516A      4.196463   517A      4.221188  
     518A      4.224143   519A      4.233565   520A      4.246660  
     521A      4.263994   522A      4.278653   523A      4.279901  
     524A      4.283906   525A      4.294318   526A      4.301490  
     527A      4.309303   528A      4.318293   529A      4.339941  
     530A      4.347257   531A      4.361282   532A      4.375090  
     533A      4.391025   534A      4.399690   535A      4.423520  
     536A      4.442260   537A      4.457728   538A      4.476321  
     539A      4.484236   540A      4.490150   541A      4.505619  
     542A      4.513831   543A      4.545140   544A      4.554799  
     545A      4.565894   546A      4.584764   547A      4.601883  
     548A      4.609205   549A      4.622757   550A      4.648601  
     551A      4.662404   552A      4.676662   553A      4.684142  
     554A      4.700366   555A      4.706985   556A      4.717874  
     557A      4.757676   558A      4.774400   559A      4.787514  
     560A      4.808066   561A      4.813121   562A      4.828400  
     563A      4.835629   564A      4.849189   565A      4.865377  
     566A      4.866608   567A      4.879266   568A      4.902259  
     569A      4.904012   570A      4.928938   571A      4.938300  
     572A      4.952360   573A      4.969844   574A      4.980248  
     575A      5.003938   576A      5.019521   577A      5.020848  
     578A      5.038518   579A      5.056032   580A      5.056732  
     581A      5.070576   582A      5.080061   583A      5.098253  
     584A      5.106101   585A      5.128750   586A      5.158006  
     587A      5.170346   588A      5.183829   589A      5.195512  
     590A      5.206815   591A      5.213845   592A      5.231999  
     593A      5.239677   594A      5.253432   595A      5.296747  
     596A      5.305434   597A      5.330877   598A      5.335967  
     599A      5.372360   600A      5.379969   601A      5.419194  
     602A      5.440344   603A      5.443468   604A      5.462198  
     605A      5.488982   606A      5.506633   607A      5.530900  
     608A      5.545305   609A      5.556664   610A      5.582299  
     611A      5.619379   612A      5.636120   613A      5.644136  
     614A      5.648450   615A      5.698161   616A      5.704812  
     617A      5.714488   618A      5.741601   619A      5.761134  
     620A      5.785191   621A      5.804238   622A      5.827846  
     623A      5.845033   624A      5.873816   625A      5.888585  
     626A      5.923230   627A      5.937616   628A      5.961840  
     629A      5.988426   630A      6.000644   631A      6.022005  
     632A      6.069241   633A      6.095802   634A      6.131570  
     635A      6.141705   636A      6.182498   637A      6.186288  
     638A      6.196437   639A      6.201480   640A      6.233396  
     641A      6.249646   642A      6.268247   643A      6.335005  
     644A      6.358234   645A      6.399080   646A      6.410541  
     647A      6.494282   648A      6.547858   649A      6.601659  
     650A      6.631463   651A      6.664247   652A      6.704365  
     653A      6.720024   654A      6.726855   655A      6.772698  
     656A      6.784003   657A      6.818689   658A      6.833299  
     659A      6.839272   660A      6.872328   661A      6.937120  
     662A      6.963002   663A      6.994095   664A      7.021466  
     665A      7.075326   666A      7.090445   667A      7.095111  
     668A      7.163500   669A      7.264713   670A      7.275335  
     671A      7.291294   672A      7.336195   673A      7.478452  
     674A      7.516770   675A      7.642445   676A      7.781351  
     677A      7.800925   678A      7.853101   679A      7.971799  
     680A      8.091749   681A     15.442981   682A     16.553124  
     683A     17.097713   684A     17.491867   685A     18.355918  
     686A     18.621327   687A     19.340919   688A     20.200734  
     689A     20.243944   690A     20.965353  

    Final Occupation by Irrep:
              A 
    DOCC [    37 ]

  @DF-RHF Final Energy:  -454.81387664978467

   => Energetics <=

    Nuclear Repulsion Energy =            523.2957598363948364
    One-Electron Energy =               -1656.1550676932465649
    Two-Electron Energy =                 678.0454312070670539
    Total Energy =                       -454.8138766497846746

Computation Completed

*** tstop() called on node37.bme.utexas.edu at Tue Feb  2 17:08:07 2021
Module time:
	user time   =     498.14 seconds =       8.30 minutes
	system time =     110.20 seconds =       1.84 minutes
	total time  =        150 seconds =       2.50 minutes
Total time:
	user time   =     498.14 seconds =       8.30 minutes
	system time =     110.20 seconds =       1.84 minutes
	total time  =        150 seconds =       2.50 minutes
   => Loading Basis Set <=

    Name: (AUG-CC-PVTZ AUX)
    Role: RIFIT
    Keyword: DF_BASIS_MP2
    atoms 1     entry O          line   264 file /home/xy3866/psi4conda/share/psi4/basis/aug-cc-pvtz-ri.gbs 
    atoms 2-3   entry N          line   206 file /home/xy3866/psi4conda/share/psi4/basis/aug-cc-pvtz-ri.gbs 
    atoms 4-10  entry C          line   148 file /home/xy3866/psi4conda/share/psi4/basis/aug-cc-pvtz-ri.gbs 
    atoms 11-20 entry H          line    30 file /home/xy3866/psi4conda/share/psi4/basis/aug-cc-pvtz-ri.gbs 


*** tstart() called on node37.bme.utexas.edu
*** at Tue Feb  2 17:08:08 2021


  //>>>>>>>>>>>>>>>>>>>>>>>>>>>>>>>>>>>//
  //               DFMP2               //
  //<<<<<<<<<<<<<<<<<<<<<<<<<<<<<<<<<<<//

	 --------------------------------------------------------
	                          DF-MP2                         
	      2nd-Order Density-Fitted Moller-Plesset Theory     
	              RMP2 Wavefunction,   8 Threads             
	                                                         
	        Rob Parrish, Justin Turney, Andy Simmonett,      
	           Ed Hohenstein, and C. David Sherrill          
	 --------------------------------------------------------

   => Auxiliary Basis Set <=

  Basis Set: (AUG-CC-PVTZ AUX)
    Blend: AUG-CC-PVTZ-RI
    Number of shells: 420
    Number of basis function: 1520
    Number of Cartesian functions: 1910
    Spherical Harmonics?: true
    Max angular momentum: 4

	 --------------------------------------------------------
	                 NBF =   690, NAUX =  1520
	 --------------------------------------------------------
	   CLASS    FOCC     OCC    AOCC    AVIR     VIR    FVIR
	   PAIRS       0      37      37     653     653       0
	 --------------------------------------------------------

  DFHelper Memory: AOs need 5.101 GiB; user supplied 22.352 GiB. Using in-core AOs.


         ------------------------------------------------------------
                                     CPHF                           
                                  Rob Parrish                       
         ------------------------------------------------------------

  ==> Geometry <==

    Molecular point group: c1
    Full point group: C1

    Geometry (in Angstrom), charge = 0, multiplicity = 1:

       Center              X                  Y                   Z               Mass       
    ------------   -----------------  -----------------  -----------------  -----------------
         O           -1.343319586766     1.400054193010    -0.393472093153    15.994914619570
         N            1.393012413234     0.553092193010     0.082783906847    14.003074004430
         N           -2.028652586766    -0.714999806990     0.141993906847    14.003074004430
         C            0.311441413234    -0.290263806990    -0.052929093153    12.000000000000
         C            0.803475413234    -1.596480806990    -0.133805093153    12.000000000000
         C            2.542605413234    -0.191263806990     0.093772906847    12.000000000000
         C            2.205926413234    -1.529640806990    -0.042238093153    12.000000000000
         C           -1.065640586766     0.224430193010    -0.111189093153    12.000000000000
         C            1.360949413234     2.008518193010     0.191347906847    12.000000000000
         C           -3.428549586766    -0.333892806990     0.178031906847    12.000000000000
         H            0.262385513234    -2.404342806990    -0.280880093153     1.007825032230
         H            3.506218413234     0.289815193010     0.199693906847     1.007825032230
         H            2.902865413234    -2.356723806990    -0.078278093153     1.007825032230
         H            0.683404413234     2.312106193010     0.988683906847     1.007825032230
         H            2.374799413234     2.340917193010     0.420014906847     1.007825032230
         H            1.017218413234     2.452676193010    -0.741819093153     1.007825032230
         H           -1.742651586766    -1.555782806990     0.625680906847     1.007825032230
         H           -4.043509586766    -1.224800806990     0.038482906847     1.007825032230
         H           -3.613785586766     0.367190193010    -0.635155093153     1.007825032230
         H           -3.703798586766     0.152602193010     1.120684906847     1.007825032230

  Nuclear repulsion =  523.295759836394836
  Reference energy  = -454.813876649784675

  ==> Basis Set <==

  Basis Set: AUG-CC-PVTZ
    Blend: AUG-CC-PVTZ
    Number of shells: 230
    Number of basis function: 690
    Number of Cartesian functions: 800
    Spherical Harmonics?: true
    Max angular momentum: 3

  ==> CGRSolver (by Rob Parrish) <==

   Number of roots    =         1
   Preconditioning    =    JACOBI
   Convergence cutoff =     1E-06
   Maximum iterations =       100

  ==> CPHFRHamiltonian (by Rob Parrish) <== 

  ==> MemDFJK: Density-Fitted J/K Matrices <==

    J tasked:                   Yes
    K tasked:                   Yes
    wK tasked:                   No
    OpenMP threads:               8
    Memory [MiB]:             22888
    Algorithm:                 Disk
    Schwarz Cutoff:           1E-12
    Mask sparsity (%):       6.7721
    Fitting Condition:        1E-10

   => Auxiliary Basis Set <=

  Basis Set: (AUG-CC-PVTZ AUX)
    Blend: AUG-CC-PVTZ-JKFIT
    Number of shells: 440
    Number of basis function: 1500
    Number of Cartesian functions: 1860
    Spherical Harmonics?: true
    Max angular momentum: 4

  ==> CPHF Iterations <==

  => Iterations <=

             Iter  Converged  Remaining    Residual
  CGR           1          0          1   1.187E-01
  CGR           2          0          1   4.083E-02
  CGR           3          0          1   1.959E-02
  CGR           4          0          1   6.669E-03
  CGR           5          0          1   2.798E-03
  CGR           6          0          1   1.132E-03
  CGR           7          0          1   3.318E-04
  CGR           8          0          1   1.150E-04
  CGR           9          0          1   4.734E-05
  CGR          10          0          1   2.011E-05
  CGR          11          0          1   8.048E-06
  CGR          12          0          1   2.840E-06
  CGR          13          1          0   8.708E-07

    CGRSolver converged.

	-----------------------------------------------------------
	 ==================> DF-MP2 Energies <==================== 
	-----------------------------------------------------------
	 Reference Energy          =    -454.8138766497846746 [Eh]
	 Singles Energy            =      -0.0000000000000000 [Eh]
	 Same-Spin Energy          =      -0.4850877437249537 [Eh]
	 Opposite-Spin Energy      =      -1.5163071216144652 [Eh]
	 Correlation Energy        =      -2.0013948653394191 [Eh]
	 Total Energy              =    -456.8152715151240955 [Eh]
	-----------------------------------------------------------
	 ================> DF-SCS-MP2 Energies <================== 
	-----------------------------------------------------------
	 SCS Same-Spin Scale       =       0.3333333333333333 [-]
	 SCS Opposite-Spin Scale   =       1.2000000000000000 [-]
	 SCS Same-Spin Energy      =      -0.1616959145749846 [Eh]
	 SCS Opposite-Spin Energy  =      -1.8195685459373583 [Eh]
	 SCS Correlation Energy    =      -1.9812644605123428 [Eh]
	 SCS Total Energy          =    -456.7951411102970383 [Eh]
	-----------------------------------------------------------



Properties will be evaluated at  -0.000000,  -0.000000,  -0.000000 [a0]

Properties computed using the MP2 density matrix

  Nuclear Dipole Moment: [e a0]
     X:    -2.2141      Y:     0.3575      Z:     1.5509

  Electronic Dipole Moment: [e a0]
     X:     2.3185      Y:    -0.8261      Z:    -1.0161

  Dipole Moment: [e a0]
     X:     0.1044      Y:    -0.4686      Z:     0.5348     Total:     0.7187

  Dipole Moment: [D]
     X:     0.2653      Y:    -1.1911      Z:     1.3594     Total:     1.8268


*** tstop() called on node37.bme.utexas.edu at Tue Feb  2 17:13:20 2021
Module time:
	user time   =    1501.95 seconds =      25.03 minutes
	system time =     194.35 seconds =       3.24 minutes
	total time  =        312 seconds =       5.20 minutes
Total time:
	user time   =    2000.31 seconds =      33.34 minutes
	system time =     304.55 seconds =       5.08 minutes
	total time  =        463 seconds =       7.72 minutes

    Psi4 stopped on: Tuesday, 02 February 2021 05:13PM
    Psi4 wall time for execution: 0:07:43.08

*** Psi4 exiting successfully. Buy a developer a beer!
