
    -----------------------------------------------------------------------
          Psi4: An Open-Source Ab Initio Electronic Structure Package
                               Psi4 1.3.2 release

                         Git: Rev {HEAD} ecbda83 


    R. M. Parrish, L. A. Burns, D. G. A. Smith, A. C. Simmonett,
    A. E. DePrince III, E. G. Hohenstein, U. Bozkaya, A. Yu. Sokolov,
    R. Di Remigio, R. M. Richard, J. F. Gonthier, A. M. James,
    H. R. McAlexander, A. Kumar, M. Saitow, X. Wang, B. P. Pritchard,
    P. Verma, H. F. Schaefer III, K. Patkowski, R. A. King, E. F. Valeev,
    F. A. Evangelista, J. M. Turney, T. D. Crawford, and C. D. Sherrill,
    J. Chem. Theory Comput. 13(7) pp 3185--3197 (2017).
    (doi: 10.1021/acs.jctc.7b00174)


                         Additional Contributions by
    P. Kraus, H. Kruse, M. H. Lechner, M. C. Schieber, R. A. Shaw,
    A. Alenaizan, R. Galvelis, Z. L. Glick, S. Lehtola, and J. P. Misiewicz

    -----------------------------------------------------------------------


    Psi4 started on: Tuesday, 02 February 2021 04:18PM

    Process ID: 12676
    Host:       node37.bme.utexas.edu
    PSIDATADIR: /home/xy3866/psi4conda/share/psi4
    Memory:     500.0 MiB
    Threads:    8
    
  ==> Input File <==

--------------------------------------------------------------------------
#psi4
#
memory 32 gb

molecule  {
0 1
  O       -1.3267430     1.3986080    -0.4043610
  N        1.4095890     0.5516460     0.0718950
  N       -2.0120760    -0.7164460     0.1311050
  C        0.3280180    -0.2917100    -0.0638180
  C        0.8552436    -1.6913512    -0.1504785
  C        2.5591820    -0.1927100     0.0828840
  C        2.2225030    -1.5310870    -0.0531270
  C       -1.0490640     0.2229840    -0.1220780
  C        1.3775260     2.0070720     0.1804590
  C       -3.4119730    -0.3353390     0.1671430
  H        0.2239390    -2.4879400    -0.3067250
  H        3.5227950     0.2883690     0.1888050
  H        2.9194420    -2.3581700    -0.0891670
  H        0.6999810     2.3106600     0.9777950
  H        2.3913760     2.3394710     0.4091260
  H        1.0337950     2.4512300    -0.7527080
  H       -1.7260750    -1.5572290     0.6147920
  H       -4.0269330    -1.2262470     0.0275940
  H       -3.5972090     0.3657440    -0.6460440
  H       -3.6872220     0.1511560     1.1097960
units angstrom
no_reorient  #important for SAPT in psi4, default
symmetry c1  #important for SAPT in psi4, default
}

set PROPERTIES_ORIGIN ["COM"]
properties('MP2/aug-cc-pvtz', properties = ['dipole'])
--------------------------------------------------------------------------

  Memory set to  29.802 GiB by Python driver.
    SCF Algorithm Type (re)set to DF.

*** tstart() called on node37.bme.utexas.edu
*** at Tue Feb  2 16:18:58 2021

   => Loading Basis Set <=

    Name: AUG-CC-PVTZ
    Role: ORBITAL
    Keyword: BASIS
    atoms 1     entry O          line   327 file /home/xy3866/psi4conda/share/psi4/basis/aug-cc-pvtz.gbs 
    atoms 2-3   entry N          line   281 file /home/xy3866/psi4conda/share/psi4/basis/aug-cc-pvtz.gbs 
    atoms 4-10  entry C          line   235 file /home/xy3866/psi4conda/share/psi4/basis/aug-cc-pvtz.gbs 
    atoms 11-20 entry H          line    36 file /home/xy3866/psi4conda/share/psi4/basis/aug-cc-pvtz.gbs 


         ---------------------------------------------------------
                                   SCF
               by Justin Turney, Rob Parrish, Andy Simmonett
                          and Daniel G. A. Smith
                              RHF Reference
                        8 Threads,  30517 MiB Core
         ---------------------------------------------------------

  ==> Geometry <==

    Molecular point group: c1
    Full point group: C1

    Geometry (in Angstrom), charge = 0, multiplicity = 1:

       Center              X                  Y                   Z               Mass       
    ------------   -----------------  -----------------  -----------------  -----------------
         O           -1.345976360867     1.408772980847    -0.392860219952    15.994914619570
         N            1.390355639133     0.561810980847     0.083395780048    14.003074004430
         N           -2.031309360867    -0.706281019153     0.142605780048    14.003074004430
         C            0.308784639133    -0.281545019153    -0.052317219952    12.000000000000
         C            0.836010239133    -1.681186219153    -0.138977719952    12.000000000000
         C            2.539948639133    -0.182545019153     0.094384780048    12.000000000000
         C            2.203269639133    -1.520922019153    -0.041626219952    12.000000000000
         C           -1.068297360867     0.233148980847    -0.110577219952    12.000000000000
         C            1.358292639133     2.017236980847     0.191959780048    12.000000000000
         C           -3.431206360867    -0.325174019153     0.178643780048    12.000000000000
         H            0.204705639133    -2.477775019153    -0.295224219952     1.007825032230
         H            3.503561639133     0.298533980847     0.200305780048     1.007825032230
         H            2.900208639133    -2.348005019153    -0.077666219952     1.007825032230
         H            0.680747639133     2.320824980847     0.989295780048     1.007825032230
         H            2.372142639133     2.349635980847     0.420626780048     1.007825032230
         H            1.014561639133     2.461394980847    -0.741207219952     1.007825032230
         H           -1.745308360867    -1.547064019153     0.626292780048     1.007825032230
         H           -4.046166360867    -1.216082019153     0.039094780048     1.007825032230
         H           -3.616442360867     0.375908980847    -0.634543219952     1.007825032230
         H           -3.706455360867     0.161320980847     1.121296780048     1.007825032230

  Running in c1 symmetry.

  Rotational constants: A =      0.08526  B =      0.03246  C =      0.02406 [cm^-1]
  Rotational constants: A =   2556.12169  B =    973.22719  C =    721.20570 [MHz]
  Nuclear repulsion =  520.990793900576023

  Charge       = 0
  Multiplicity = 1
  Electrons    = 74
  Nalpha       = 37
  Nbeta        = 37

  ==> Algorithm <==

  SCF Algorithm Type is DF.
  DIIS enabled.
  MOM disabled.
  Fractional occupation disabled.
  Guess Type is SAD.
  Energy threshold   = 1.00e-10
  Density threshold  = 1.00e-10
  Integral threshold = 0.00e+00

  ==> Primary Basis <==

  Basis Set: AUG-CC-PVTZ
    Blend: AUG-CC-PVTZ
    Number of shells: 230
    Number of basis function: 690
    Number of Cartesian functions: 800
    Spherical Harmonics?: true
    Max angular momentum: 3

   => Loading Basis Set <=

    Name: (AUG-CC-PVTZ AUX)
    Role: JKFIT
    Keyword: DF_BASIS_SCF
    atoms 1     entry O          line   286 file /home/xy3866/psi4conda/share/psi4/basis/aug-cc-pvtz-jkfit.gbs 
    atoms 2-3   entry N          line   224 file /home/xy3866/psi4conda/share/psi4/basis/aug-cc-pvtz-jkfit.gbs 
    atoms 4-10  entry C          line   162 file /home/xy3866/psi4conda/share/psi4/basis/aug-cc-pvtz-jkfit.gbs 
    atoms 11-20 entry H          line    70 file /home/xy3866/psi4conda/share/psi4/basis/aug-cc-pvtz-jkfit.gbs 

  ==> Pre-Iterations <==

   -------------------------------------------------------
    Irrep   Nso     Nmo     Nalpha   Nbeta   Ndocc  Nsocc
   -------------------------------------------------------
     A        690     690       0       0       0       0
   -------------------------------------------------------
    Total     690     690      37      37      37       0
   -------------------------------------------------------

  ==> Integral Setup <==

  DFHelper Memory: AOs need 5.099 GiB; user supplied 22.352 GiB. Using in-core AOs.

  ==> MemDFJK: Density-Fitted J/K Matrices <==

    J tasked:                   Yes
    K tasked:                   Yes
    wK tasked:                   No
    OpenMP threads:               8
    Memory [MiB]:             22888
    Algorithm:                 Disk
    Schwarz Cutoff:           1E-12
    Mask sparsity (%):       6.8091
    Fitting Condition:        1E-10

   => Auxiliary Basis Set <=

  Basis Set: (AUG-CC-PVTZ AUX)
    Blend: AUG-CC-PVTZ-JKFIT
    Number of shells: 440
    Number of basis function: 1500
    Number of Cartesian functions: 1860
    Spherical Harmonics?: true
    Max angular momentum: 4

  Minimum eigenvalue in the overlap matrix is 1.8894184541E-06.
  Using Symmetric Orthogonalization.

  SCF Guess: Superposition of Atomic Densities via on-the-fly atomic UHF.

  ==> Iterations <==

                           Total Energy        Delta E     RMS |[F,P]|

   @DF-RHF iter SAD:  -454.16333934456259   -4.54163e+02   0.00000e+00 
   @DF-RHF iter   1:  -454.51145506047357   -3.48116e-01   1.05998e-03 DIIS
   @DF-RHF iter   2:  -454.73952799344357   -2.28073e-01   5.75965e-04 DIIS
   @DF-RHF iter   3:  -454.79934388630539   -5.98159e-02   1.34965e-04 DIIS
   @DF-RHF iter   4:  -454.80395909167800   -4.61521e-03   5.45533e-05 DIIS
   @DF-RHF iter   5:  -454.80477136992181   -8.12278e-04   1.08426e-05 DIIS
   @DF-RHF iter   6:  -454.80483067404293   -5.93041e-05   4.88093e-06 DIIS
   @DF-RHF iter   7:  -454.80484411192151   -1.34379e-05   1.75026e-06 DIIS
   @DF-RHF iter   8:  -454.80484674320309   -2.63128e-06   7.14171e-07 DIIS
   @DF-RHF iter   9:  -454.80484712116288   -3.77960e-07   3.24016e-07 DIIS
   @DF-RHF iter  10:  -454.80484718247487   -6.13120e-08   9.99281e-08 DIIS
   @DF-RHF iter  11:  -454.80484719003960   -7.56472e-09   4.32311e-08 DIIS
   @DF-RHF iter  12:  -454.80484719099849   -9.58892e-10   1.61728e-08 DIIS
   @DF-RHF iter  13:  -454.80484719121074   -2.12253e-10   6.83647e-09 DIIS
   @DF-RHF iter  14:  -454.80484719124252   -3.17755e-11   2.92160e-09 DIIS
   @DF-RHF iter  15:  -454.80484719124900   -6.48015e-12   1.48788e-09 DIIS
   @DF-RHF iter  16:  -454.80484719125081   -1.81899e-12   6.53837e-10 DIIS
   @DF-RHF iter  17:  -454.80484719125059    2.27374e-13   1.97773e-10 DIIS
   @DF-RHF iter  18:  -454.80484719125144   -8.52651e-13   7.43045e-11 DIIS
  Energy and wave function converged.


  ==> Post-Iterations <==

    Orbital Energies [Eh]
    ---------------------

    Doubly Occupied:                                                      

       1A    -20.514229     2A    -15.630763     3A    -15.581684  
       4A    -11.353327     5A    -11.269939     6A    -11.266288  
       7A    -11.266260     8A    -11.256373     9A    -11.236590  
      10A    -11.222946    11A     -1.370681    12A     -1.306167  
      13A     -1.224212    14A     -1.081674    15A     -1.010399  
      16A     -0.945954    17A     -0.938796    18A     -0.826466  
      19A     -0.788415    20A     -0.761095    21A     -0.725453  
      22A     -0.653945    23A     -0.641608    24A     -0.633964  
      25A     -0.617290    26A     -0.596638    27A     -0.586299  
      28A     -0.571399    29A     -0.561520    30A     -0.545429  
      31A     -0.536589    32A     -0.520683    33A     -0.512646  
      34A     -0.426845    35A     -0.392450    36A     -0.353887  
      37A     -0.295186  

    Virtual:                                                              

      38A      0.026178    39A      0.029588    40A      0.034913  
      41A      0.043601    42A      0.045576    43A      0.048205  
      44A      0.056877    45A      0.060683    46A      0.065730  
      47A      0.070663    48A      0.086002    49A      0.090960  
      50A      0.092923    51A      0.110782    52A      0.112351  
      53A      0.114470    54A      0.116187    55A      0.117253  
      56A      0.120192    57A      0.125756    58A      0.130120  
      59A      0.132498    60A      0.137770    61A      0.140353  
      62A      0.143214    63A      0.145616    64A      0.149167  
      65A      0.158648    66A      0.162905    67A      0.167053  
      68A      0.170976    69A      0.173176    70A      0.181986  
      71A      0.195062    72A      0.197894    73A      0.206129  
      74A      0.207898    75A      0.218876    76A      0.229225  
      77A      0.232166    78A      0.237169    79A      0.240977  
      80A      0.246942    81A      0.252120    82A      0.256444  
      83A      0.260700    84A      0.262113    85A      0.268441  
      86A      0.275577    87A      0.283273    88A      0.288082  
      89A      0.293574    90A      0.301669    91A      0.303095  
      92A      0.309183    93A      0.312531    94A      0.320605  
      95A      0.325753    96A      0.331359    97A      0.333421  
      98A      0.337638    99A      0.342938   100A      0.345263  
     101A      0.350460   102A      0.352799   103A      0.359379  
     104A      0.362534   105A      0.367736   106A      0.371183  
     107A      0.374339   108A      0.381112   109A      0.387640  
     110A      0.389443   111A      0.395307   112A      0.398639  
     113A      0.400480   114A      0.403155   115A      0.407142  
     116A      0.413658   117A      0.420165   118A      0.426632  
     119A      0.436315   120A      0.437844   121A      0.449867  
     122A      0.452523   123A      0.456315   124A      0.458859  
     125A      0.460551   126A      0.463097   127A      0.468052  
     128A      0.473433   129A      0.477455   130A      0.482705  
     131A      0.488323   132A      0.489205   133A      0.493054  
     134A      0.497473   135A      0.504551   136A      0.509332  
     137A      0.511464   138A      0.516796   139A      0.518695  
     140A      0.521550   141A      0.526941   142A      0.533149  
     143A      0.536135   144A      0.540327   145A      0.545189  
     146A      0.548816   147A      0.551655   148A      0.563067  
     149A      0.564717   150A      0.569983   151A      0.576832  
     152A      0.582302   153A      0.588109   154A      0.591830  
     155A      0.597400   156A      0.609741   157A      0.613809  
     158A      0.617827   159A      0.628983   160A      0.635698  
     161A      0.641355   162A      0.647713   163A      0.657483  
     164A      0.661864   165A      0.674431   166A      0.678863  
     167A      0.689727   168A      0.694162   169A      0.702531  
     170A      0.713485   171A      0.714897   172A      0.717631  
     173A      0.731233   174A      0.732279   175A      0.742909  
     176A      0.752797   177A      0.763031   178A      0.767296  
     179A      0.773130   180A      0.777786   181A      0.783226  
     182A      0.793092   183A      0.807928   184A      0.809502  
     185A      0.818784   186A      0.821789   187A      0.831986  
     188A      0.835661   189A      0.844539   190A      0.851976  
     191A      0.859754   192A      0.866189   193A      0.874366  
     194A      0.876500   195A      0.879837   196A      0.892224  
     197A      0.893856   198A      0.903040   199A      0.907282  
     200A      0.911453   201A      0.917149   202A      0.921101  
     203A      0.922504   204A      0.932421   205A      0.933022  
     206A      0.940647   207A      0.949572   208A      0.952551  
     209A      0.954618   210A      0.964184   211A      0.967339  
     212A      0.969686   213A      0.980365   214A      0.985297  
     215A      0.988394   216A      0.990631   217A      1.001052  
     218A      1.006326   219A      1.014986   220A      1.018516  
     221A      1.026013   222A      1.028618   223A      1.032269  
     224A      1.037588   225A      1.052967   226A      1.055367  
     227A      1.060504   228A      1.069022   229A      1.076083  
     230A      1.076524   231A      1.081635   232A      1.084953  
     233A      1.091083   234A      1.099680   235A      1.111193  
     236A      1.117146   237A      1.120179   238A      1.122646  
     239A      1.129758   240A      1.135009   241A      1.148838  
     242A      1.151381   243A      1.155597   244A      1.161353  
     245A      1.166377   246A      1.167706   247A      1.176557  
     248A      1.181252   249A      1.188525   250A      1.193310  
     251A      1.199560   252A      1.209219   253A      1.213552  
     254A      1.217594   255A      1.222289   256A      1.231540  
     257A      1.235167   258A      1.243921   259A      1.244740  
     260A      1.249192   261A      1.258352   262A      1.269348  
     263A      1.276434   264A      1.286758   265A      1.296022  
     266A      1.310883   267A      1.315302   268A      1.326544  
     269A      1.332403   270A      1.338703   271A      1.342850  
     272A      1.346227   273A      1.361038   274A      1.372716  
     275A      1.378054   276A      1.393015   277A      1.396705  
     278A      1.399845   279A      1.410144   280A      1.415368  
     281A      1.420747   282A      1.430552   283A      1.434321  
     284A      1.438653   285A      1.450624   286A      1.456100  
     287A      1.462359   288A      1.475402   289A      1.488371  
     290A      1.491865   291A      1.505491   292A      1.510413  
     293A      1.515226   294A      1.518868   295A      1.524943  
     296A      1.533433   297A      1.539263   298A      1.548287  
     299A      1.560769   300A      1.569911   301A      1.573663  
     302A      1.596214   303A      1.602329   304A      1.607381  
     305A      1.612705   306A      1.617243   307A      1.625084  
     308A      1.632016   309A      1.635089   310A      1.643970  
     311A      1.657135   312A      1.662731   313A      1.669820  
     314A      1.673051   315A      1.681711   316A      1.688145  
     317A      1.695574   318A      1.703750   319A      1.715893  
     320A      1.717720   321A      1.729825   322A      1.733295  
     323A      1.748004   324A      1.756215   325A      1.763396  
     326A      1.769487   327A      1.781368   328A      1.789098  
     329A      1.802040   330A      1.818222   331A      1.822081  
     332A      1.836340   333A      1.844381   334A      1.851661  
     335A      1.864730   336A      1.871036   337A      1.872712  
     338A      1.877596   339A      1.895845   340A      1.908166  
     341A      1.912922   342A      1.921207   343A      1.928303  
     344A      1.943249   345A      1.955608   346A      1.971820  
     347A      1.973794   348A      1.983076   349A      1.991000  
     350A      2.008557   351A      2.015346   352A      2.018113  
     353A      2.025013   354A      2.026833   355A      2.039787  
     356A      2.045103   357A      2.069168   358A      2.073362  
     359A      2.086054   360A      2.090173   361A      2.093522  
     362A      2.108309   363A      2.122382   364A      2.123476  
     365A      2.142055   366A      2.155639   367A      2.177485  
     368A      2.181520   369A      2.183715   370A      2.193526  
     371A      2.203241   372A      2.211713   373A      2.220950  
     374A      2.234142   375A      2.242668   376A      2.253482  
     377A      2.257273   378A      2.272554   379A      2.276251  
     380A      2.299626   381A      2.299971   382A      2.328329  
     383A      2.331296   384A      2.337766   385A      2.352985  
     386A      2.359970   387A      2.369817   388A      2.385151  
     389A      2.398004   390A      2.414838   391A      2.417831  
     392A      2.438707   393A      2.448569   394A      2.460723  
     395A      2.481007   396A      2.499963   397A      2.510803  
     398A      2.516265   399A      2.543308   400A      2.550447  
     401A      2.566391   402A      2.582344   403A      2.599242  
     404A      2.614802   405A      2.629679   406A      2.634481  
     407A      2.654219   408A      2.659369   409A      2.673769  
     410A      2.688383   411A      2.704010   412A      2.710539  
     413A      2.741688   414A      2.748582   415A      2.763013  
     416A      2.791238   417A      2.818852   418A      2.844495  
     419A      2.861886   420A      2.862502   421A      2.877304  
     422A      2.885999   423A      2.901024   424A      2.942304  
     425A      2.963551   426A      2.998089   427A      3.006811  
     428A      3.030526   429A      3.066802   430A      3.088016  
     431A      3.120270   432A      3.135710   433A      3.139974  
     434A      3.172102   435A      3.218448   436A      3.227917  
     437A      3.276991   438A      3.278026   439A      3.292452  
     440A      3.305016   441A      3.334105   442A      3.337821  
     443A      3.349819   444A      3.377147   445A      3.383117  
     446A      3.401541   447A      3.408587   448A      3.433987  
     449A      3.442428   450A      3.447937   451A      3.487534  
     452A      3.493100   453A      3.503715   454A      3.512213  
     455A      3.528337   456A      3.546826   457A      3.556534  
     458A      3.563122   459A      3.578018   460A      3.583480  
     461A      3.594269   462A      3.608547   463A      3.616842  
     464A      3.634302   465A      3.647440   466A      3.658054  
     467A      3.663760   468A      3.672287   469A      3.688300  
     470A      3.701167   471A      3.717523   472A      3.724485  
     473A      3.736302   474A      3.742360   475A      3.760050  
     476A      3.764063   477A      3.793955   478A      3.799073  
     479A      3.808182   480A      3.812429   481A      3.818984  
     482A      3.844825   483A      3.861861   484A      3.877227  
     485A      3.883574   486A      3.894118   487A      3.899351  
     488A      3.902321   489A      3.912454   490A      3.917486  
     491A      3.933801   492A      3.939337   493A      3.942694  
     494A      3.955071   495A      3.959038   496A      3.970902  
     497A      3.991725   498A      4.001510   499A      4.012516  
     500A      4.027235   501A      4.036986   502A      4.048877  
     503A      4.062211   504A      4.068039   505A      4.072723  
     506A      4.085299   507A      4.088967   508A      4.104270  
     509A      4.126615   510A      4.131259   511A      4.136547  
     512A      4.151458   513A      4.159514   514A      4.160534  
     515A      4.185164   516A      4.192514   517A      4.210246  
     518A      4.223232   519A      4.226146   520A      4.227516  
     521A      4.232133   522A      4.260021   523A      4.272828  
     524A      4.275253   525A      4.283645   526A      4.292534  
     527A      4.301959   528A      4.310987   529A      4.331486  
     530A      4.340375   531A      4.356118   532A      4.365866  
     533A      4.378122   534A      4.384548   535A      4.402519  
     536A      4.429763   537A      4.432296   538A      4.452260  
     539A      4.466333   540A      4.474668   541A      4.494369  
     542A      4.506380   543A      4.527938   544A      4.533515  
     545A      4.554671   546A      4.569297   547A      4.590612  
     548A      4.605815   549A      4.612832   550A      4.631805  
     551A      4.647853   552A      4.659192   553A      4.675749  
     554A      4.688828   555A      4.697593   556A      4.713951  
     557A      4.735281   558A      4.740183   559A      4.772821  
     560A      4.785720   561A      4.805886   562A      4.817981  
     563A      4.827417   564A      4.832219   565A      4.845587  
     566A      4.855992   567A      4.883853   568A      4.891509  
     569A      4.899872   570A      4.912932   571A      4.924448  
     572A      4.944909   573A      4.957364   574A      4.964519  
     575A      4.971587   576A      4.996798   577A      5.008883  
     578A      5.025337   579A      5.037040   580A      5.049689  
     581A      5.052200   582A      5.063011   583A      5.070913  
     584A      5.091446   585A      5.113709   586A      5.156936  
     587A      5.162940   588A      5.166906   589A      5.191588  
     590A      5.193752   591A      5.202244   592A      5.207009  
     593A      5.232127   594A      5.244553   595A      5.285368  
     596A      5.301221   597A      5.319283   598A      5.324565  
     599A      5.348205   600A      5.356350   601A      5.400092  
     602A      5.425491   603A      5.442526   604A      5.448301  
     605A      5.456171   606A      5.471453   607A      5.502158  
     608A      5.522192   609A      5.537301   610A      5.547571  
     611A      5.610156   612A      5.627208   613A      5.631637  
     614A      5.637402   615A      5.695019   616A      5.700727  
     617A      5.712527   618A      5.736458   619A      5.747915  
     620A      5.783481   621A      5.797297   622A      5.820048  
     623A      5.828804   624A      5.847216   625A      5.874108  
     626A      5.887901   627A      5.907369   628A      5.929513  
     629A      5.983104   630A      5.993169   631A      6.002577  
     632A      6.046526   633A      6.077348   634A      6.104531  
     635A      6.138648   636A      6.163678   637A      6.180606  
     638A      6.188944   639A      6.196389   640A      6.223578  
     641A      6.230330   642A      6.250554   643A      6.321376  
     644A      6.337357   645A      6.349930   646A      6.386194  
     647A      6.450890   648A      6.487039   649A      6.528867  
     650A      6.549139   651A      6.619933   652A      6.696465  
     653A      6.720785   654A      6.723818   655A      6.766419  
     656A      6.776034   657A      6.793334   658A      6.824562  
     659A      6.831557   660A      6.845070   661A      6.935694  
     662A      6.959930   663A      6.991567   664A      7.010773  
     665A      7.048245   666A      7.073056   667A      7.092685  
     668A      7.126133   669A      7.223521   670A      7.272438  
     671A      7.286370   672A      7.313119   673A      7.477375  
     674A      7.516750   675A      7.633983   676A      7.775835  
     677A      7.792306   678A      7.840535   679A      7.969630  
     680A      8.088492   681A     15.186595   682A     16.424362  
     683A     16.779279   684A     17.403855   685A     18.350505  
     686A     18.582220   687A     19.116136   688A     19.701389  
     689A     20.156947   690A     20.404151  

    Final Occupation by Irrep:
              A 
    DOCC [    37 ]

  @DF-RHF Final Energy:  -454.80484719125144

   => Energetics <=

    Nuclear Repulsion Energy =            520.9907939005760227
    One-Electron Energy =               -1651.5431082583031639
    Two-Electron Energy =                 675.7474671664756443
    Total Energy =                       -454.8048471912513833

Computation Completed

*** tstop() called on node37.bme.utexas.edu at Tue Feb  2 16:21:31 2021
Module time:
	user time   =     501.28 seconds =       8.35 minutes
	system time =     114.06 seconds =       1.90 minutes
	total time  =        153 seconds =       2.55 minutes
Total time:
	user time   =     501.28 seconds =       8.35 minutes
	system time =     114.06 seconds =       1.90 minutes
	total time  =        153 seconds =       2.55 minutes
   => Loading Basis Set <=

    Name: (AUG-CC-PVTZ AUX)
    Role: RIFIT
    Keyword: DF_BASIS_MP2
    atoms 1     entry O          line   264 file /home/xy3866/psi4conda/share/psi4/basis/aug-cc-pvtz-ri.gbs 
    atoms 2-3   entry N          line   206 file /home/xy3866/psi4conda/share/psi4/basis/aug-cc-pvtz-ri.gbs 
    atoms 4-10  entry C          line   148 file /home/xy3866/psi4conda/share/psi4/basis/aug-cc-pvtz-ri.gbs 
    atoms 11-20 entry H          line    30 file /home/xy3866/psi4conda/share/psi4/basis/aug-cc-pvtz-ri.gbs 


*** tstart() called on node37.bme.utexas.edu
*** at Tue Feb  2 16:21:31 2021


  //>>>>>>>>>>>>>>>>>>>>>>>>>>>>>>>>>>>//
  //               DFMP2               //
  //<<<<<<<<<<<<<<<<<<<<<<<<<<<<<<<<<<<//

	 --------------------------------------------------------
	                          DF-MP2                         
	      2nd-Order Density-Fitted Moller-Plesset Theory     
	              RMP2 Wavefunction,   8 Threads             
	                                                         
	        Rob Parrish, Justin Turney, Andy Simmonett,      
	           Ed Hohenstein, and C. David Sherrill          
	 --------------------------------------------------------

   => Auxiliary Basis Set <=

  Basis Set: (AUG-CC-PVTZ AUX)
    Blend: AUG-CC-PVTZ-RI
    Number of shells: 420
    Number of basis function: 1520
    Number of Cartesian functions: 1910
    Spherical Harmonics?: true
    Max angular momentum: 4

	 --------------------------------------------------------
	                 NBF =   690, NAUX =  1520
	 --------------------------------------------------------
	   CLASS    FOCC     OCC    AOCC    AVIR     VIR    FVIR
	   PAIRS       0      37      37     653     653       0
	 --------------------------------------------------------

  DFHelper Memory: AOs need 5.099 GiB; user supplied 22.352 GiB. Using in-core AOs.


         ------------------------------------------------------------
                                     CPHF                           
                                  Rob Parrish                       
         ------------------------------------------------------------

  ==> Geometry <==

    Molecular point group: c1
    Full point group: C1

    Geometry (in Angstrom), charge = 0, multiplicity = 1:

       Center              X                  Y                   Z               Mass       
    ------------   -----------------  -----------------  -----------------  -----------------
         O           -1.345976360867     1.408772980847    -0.392860219952    15.994914619570
         N            1.390355639133     0.561810980847     0.083395780048    14.003074004430
         N           -2.031309360867    -0.706281019153     0.142605780048    14.003074004430
         C            0.308784639133    -0.281545019153    -0.052317219952    12.000000000000
         C            0.836010239133    -1.681186219153    -0.138977719952    12.000000000000
         C            2.539948639133    -0.182545019153     0.094384780048    12.000000000000
         C            2.203269639133    -1.520922019153    -0.041626219952    12.000000000000
         C           -1.068297360867     0.233148980847    -0.110577219952    12.000000000000
         C            1.358292639133     2.017236980847     0.191959780048    12.000000000000
         C           -3.431206360867    -0.325174019153     0.178643780048    12.000000000000
         H            0.204705639133    -2.477775019153    -0.295224219952     1.007825032230
         H            3.503561639133     0.298533980847     0.200305780048     1.007825032230
         H            2.900208639133    -2.348005019153    -0.077666219952     1.007825032230
         H            0.680747639133     2.320824980847     0.989295780048     1.007825032230
         H            2.372142639133     2.349635980847     0.420626780048     1.007825032230
         H            1.014561639133     2.461394980847    -0.741207219952     1.007825032230
         H           -1.745308360867    -1.547064019153     0.626292780048     1.007825032230
         H           -4.046166360867    -1.216082019153     0.039094780048     1.007825032230
         H           -3.616442360867     0.375908980847    -0.634543219952     1.007825032230
         H           -3.706455360867     0.161320980847     1.121296780048     1.007825032230

  Nuclear repulsion =  520.990793900576023
  Reference energy  = -454.804847191251440

  ==> Basis Set <==

  Basis Set: AUG-CC-PVTZ
    Blend: AUG-CC-PVTZ
    Number of shells: 230
    Number of basis function: 690
    Number of Cartesian functions: 800
    Spherical Harmonics?: true
    Max angular momentum: 3

  ==> CGRSolver (by Rob Parrish) <==

   Number of roots    =         1
   Preconditioning    =    JACOBI
   Convergence cutoff =     1E-06
   Maximum iterations =       100

  ==> CPHFRHamiltonian (by Rob Parrish) <== 

  ==> MemDFJK: Density-Fitted J/K Matrices <==

    J tasked:                   Yes
    K tasked:                   Yes
    wK tasked:                   No
    OpenMP threads:               8
    Memory [MiB]:             22888
    Algorithm:                 Disk
    Schwarz Cutoff:           1E-12
    Mask sparsity (%):       6.8091
    Fitting Condition:        1E-10

   => Auxiliary Basis Set <=

  Basis Set: (AUG-CC-PVTZ AUX)
    Blend: AUG-CC-PVTZ-JKFIT
    Number of shells: 440
    Number of basis function: 1500
    Number of Cartesian functions: 1860
    Spherical Harmonics?: true
    Max angular momentum: 4

  ==> CPHF Iterations <==

  => Iterations <=

             Iter  Converged  Remaining    Residual
  CGR           1          0          1   1.128E-01
  CGR           2          0          1   3.691E-02
  CGR           3          0          1   1.676E-02
  CGR           4          0          1   6.264E-03
  CGR           5          0          1   2.920E-03
  CGR           6          0          1   1.271E-03
  CGR           7          0          1   4.137E-04
  CGR           8          0          1   1.567E-04
  CGR           9          0          1   6.540E-05
  CGR          10          0          1   3.125E-05
  CGR          11          0          1   1.439E-05
  CGR          12          0          1   5.005E-06
  CGR          13          0          1   1.854E-06
  CGR          14          1          0   5.196E-07

    CGRSolver converged.

	-----------------------------------------------------------
	 ==================> DF-MP2 Energies <==================== 
	-----------------------------------------------------------
	 Reference Energy          =    -454.8048471912514401 [Eh]
	 Singles Energy            =      -0.0000000000000000 [Eh]
	 Same-Spin Energy          =      -0.4868508278733802 [Eh]
	 Opposite-Spin Energy      =      -1.5194432529272310 [Eh]
	 Correlation Energy        =      -2.0062940808006111 [Eh]
	 Total Energy              =    -456.8111412720520548 [Eh]
	-----------------------------------------------------------
	 ================> DF-SCS-MP2 Energies <================== 
	-----------------------------------------------------------
	 SCS Same-Spin Scale       =       0.3333333333333333 [-]
	 SCS Opposite-Spin Scale   =       1.2000000000000000 [-]
	 SCS Same-Spin Energy      =      -0.1622836092911267 [Eh]
	 SCS Opposite-Spin Energy  =      -1.8233319035126772 [Eh]
	 SCS Correlation Energy    =      -1.9856155128038040 [Eh]
	 SCS Total Energy          =    -456.7904627040552441 [Eh]
	-----------------------------------------------------------



Properties will be evaluated at  -0.000000,   0.000000,  -0.000000 [a0]

Properties computed using the MP2 density matrix

  Nuclear Dipole Moment: [e a0]
     X:    -2.2906      Y:     0.3622      Z:     1.5427

  Electronic Dipole Moment: [e a0]
     X:     2.4409      Y:    -0.8082      Z:    -1.0075

  Dipole Moment: [e a0]
     X:     0.1503      Y:    -0.4460      Z:     0.5351     Total:     0.7127

  Dipole Moment: [D]
     X:     0.3820      Y:    -1.1337      Z:     1.3602     Total:     1.8114


*** tstop() called on node37.bme.utexas.edu at Tue Feb  2 16:26:37 2021
Module time:
	user time   =    1485.74 seconds =      24.76 minutes
	system time =     178.17 seconds =       2.97 minutes
	total time  =        306 seconds =       5.10 minutes
Total time:
	user time   =    1987.24 seconds =      33.12 minutes
	system time =     292.23 seconds =       4.87 minutes
	total time  =        459 seconds =       7.65 minutes

    Psi4 stopped on: Tuesday, 02 February 2021 04:26PM
    Psi4 wall time for execution: 0:07:39.50

*** Psi4 exiting successfully. Buy a developer a beer!
