172_123-Trichloropropane Gaussian SP Calculation on node58.bme.utexas.ed
Freq      RMP2-FC                                                     6-31G(d)            
Number of atoms                            I               11
Info1-9                                    I   N=           9
          22          21        1002           0           0         100
           6           2           1
Charge                                     I                0
Multiplicity                               I                1
Number of electrons                        I               74
Number of alpha electrons                  I               37
Number of beta electrons                   I               37
Number of basis functions                  I              112
Number of independent functions            I              112
Number of point charges in /Mol/           I                0
Number of translation vectors              I                0
Atomic numbers                             I   N=          11
          17          17          17           6           6           6
           1           1           1           1           1
Nuclear charges                            R   N=          11
  1.70000000E+01  1.70000000E+01  1.70000000E+01  6.00000000E+00  6.00000000E+00
  6.00000000E+00  1.00000000E+00  1.00000000E+00  1.00000000E+00  1.00000000E+00
  1.00000000E+00
Current cartesian coordinates              R   N=          33
 -2.94026048E+00 -2.90416589E+00 -2.11808278E-01  4.65387061E+00  2.37767133E-02
  3.19474198E-02 -2.02059600E+00  3.40531452E+00 -6.55710799E-01 -2.43395441E-01
 -1.22623342E+00  9.46589999E-01  1.76756055E+00 -1.30248602E+00 -1.10185618E+00
 -9.73310976E-01  1.40372206E+00  1.83481674E+00  4.25226099E-01 -2.26715869E+00
  2.60293593E+00  1.16721026E+00 -2.26927633E-01 -2.75201052E+00  2.14569281E+00
 -3.25215060E+00 -1.64553091E+00 -2.49420548E+00  1.27580681E+00  3.21919730E+00
  6.69711266E-01  2.29668351E+00  2.70282303E+00
Force Field                                I                0
Int Atom Types                             I   N=          11
           0           0           0           0           0           0
           0           0           0           0           0
MM charges                                 R   N=          11
  0.00000000E+00  0.00000000E+00  0.00000000E+00  0.00000000E+00  0.00000000E+00
  0.00000000E+00  0.00000000E+00  0.00000000E+00  0.00000000E+00  0.00000000E+00
  0.00000000E+00
Integer atomic weights                     I   N=          11
          35          35          35          12          12          12
           1           1           1           1           1
Real atomic weights                        R   N=          11
  3.49688527E+01  3.49688527E+01  3.49688527E+01  1.20000000E+01  1.20000000E+01
  1.20000000E+01  1.00782504E+00  1.00782504E+00  1.00782504E+00  1.00782504E+00
  1.00782504E+00
Atom fragment info                         I   N=          11
           0           0           0           0           0           0
           0           0           0           0           0
Atom residue num                           I   N=          11
           0           0           0           0           0           0
           0           0           0           0           0
Nuclear spins                              I   N=          11
           3           3           3           0           0           0
           1           1           1           1           1
Nuclear ZEff                               R   N=          11
 -1.42400000E+01 -1.42400000E+01 -1.42400000E+01 -3.60000000E+00 -3.60000000E+00
 -3.60000000E+00 -1.00000000E+00 -1.00000000E+00 -1.00000000E+00 -1.00000000E+00
 -1.00000000E+00
Nuclear QMom                               R   N=          11
 -8.16500000E+00 -8.16500000E+00 -8.16500000E+00  0.00000000E+00  0.00000000E+00
  0.00000000E+00  0.00000000E+00  0.00000000E+00  0.00000000E+00  0.00000000E+00
  0.00000000E+00
Nuclear GFac                               R   N=          11
  8.21874000E-01  8.21874000E-01  8.21874000E-01  0.00000000E+00  0.00000000E+00
  0.00000000E+00  2.79284600E+00  2.79284600E+00  2.79284600E+00  2.79284600E+00
  2.79284600E+00
MicOpt                                     I   N=          11
          -1          -1          -1          -1          -1          -1
          -1          -1          -1          -1          -1
Number of contracted shells                I               37
Number of primitive shells                 I              104
Pure/Cartesian d shells                    I                1
Pure/Cartesian f shells                    I                0
Highest angular momentum                   I                2
Largest degree of contraction              I                6
Shell types                                I   N=          37
           0          -1          -1          -1           2           0
          -1          -1          -1           2           0          -1
          -1          -1           2           0          -1          -1
           2           0          -1          -1           2           0
          -1          -1           2           0           0           0
           0           0           0           0           0           0
           0
Number of primitives per shell             I   N=          37
           6           6           3           1           1           6
           6           3           1           1           6           6
           3           1           1           6           3           1
           1           6           3           1           1           6
           3           1           1           3           1           3
           1           3           1           3           1           3
           1
Shell to atom map                          I   N=          37
           1           1           1           1           1           2
           2           2           2           2           3           3
           3           3           3           4           4           4
           4           5           5           5           5           6
           6           6           6           7           7           8
           8           9           9          10          10          11
          11
Primitive exponents                        R   N=         104
  2.51801000E+04  3.78035000E+03  8.60474000E+02  2.42145000E+02  7.73349000E+01
  2.62470000E+01  4.91765000E+02  1.16984000E+02  3.74153000E+01  1.37834000E+01
  5.45215000E+00  2.22588000E+00  3.18649000E+00  1.14427000E+00  4.20377000E-01
  1.42657000E-01  7.50000000E-01  2.51801000E+04  3.78035000E+03  8.60474000E+02
  2.42145000E+02  7.73349000E+01  2.62470000E+01  4.91765000E+02  1.16984000E+02
  3.74153000E+01  1.37834000E+01  5.45215000E+00  2.22588000E+00  3.18649000E+00
  1.14427000E+00  4.20377000E-01  1.42657000E-01  7.50000000E-01  2.51801000E+04
  3.78035000E+03  8.60474000E+02  2.42145000E+02  7.73349000E+01  2.62470000E+01
  4.91765000E+02  1.16984000E+02  3.74153000E+01  1.37834000E+01  5.45215000E+00
  2.22588000E+00  3.18649000E+00  1.14427000E+00  4.20377000E-01  1.42657000E-01
  7.50000000E-01  3.04752488E+03  4.57369518E+02  1.03948685E+02  2.92101553E+01
  9.28666296E+00  3.16392696E+00  7.86827235E+00  1.88128854E+00  5.44249258E-01
  1.68714478E-01  8.00000000E-01  3.04752488E+03  4.57369518E+02  1.03948685E+02
  2.92101553E+01  9.28666296E+00  3.16392696E+00  7.86827235E+00  1.88128854E+00
  5.44249258E-01  1.68714478E-01  8.00000000E-01  3.04752488E+03  4.57369518E+02
  1.03948685E+02  2.92101553E+01  9.28666296E+00  3.16392696E+00  7.86827235E+00
  1.88128854E+00  5.44249258E-01  1.68714478E-01  8.00000000E-01  1.87311370E+01
  2.82539436E+00  6.40121692E-01  1.61277759E-01  1.87311370E+01  2.82539436E+00
  6.40121692E-01  1.61277759E-01  1.87311370E+01  2.82539436E+00  6.40121692E-01
  1.61277759E-01  1.87311370E+01  2.82539436E+00  6.40121692E-01  1.61277759E-01
  1.87311370E+01  2.82539436E+00  6.40121692E-01  1.61277759E-01
Contraction coefficients                   R   N=         104
  1.83295985E-03  1.40341988E-02  6.90973943E-02  2.37451980E-01  4.83033960E-01
  3.39855972E-01 -2.29739142E-03 -3.07137189E-02 -1.12528069E-01  4.50163278E-02
  5.89353363E-01  4.65206287E-01 -2.51828028E-01  6.15892514E-02  1.06018433E+00
  1.00000000E+00  1.00000000E+00  1.83295985E-03  1.40341988E-02  6.90973943E-02
  2.37451980E-01  4.83033960E-01  3.39855972E-01 -2.29739142E-03 -3.07137189E-02
 -1.12528069E-01  4.50163278E-02  5.89353363E-01  4.65206287E-01 -2.51828028E-01
  6.15892514E-02  1.06018433E+00  1.00000000E+00  1.00000000E+00  1.83295985E-03
  1.40341988E-02  6.90973943E-02  2.37451980E-01  4.83033960E-01  3.39855972E-01
 -2.29739142E-03 -3.07137189E-02 -1.12528069E-01  4.50163278E-02  5.89353363E-01
  4.65206287E-01 -2.51828028E-01  6.15892514E-02  1.06018433E+00  1.00000000E+00
  1.00000000E+00  1.83473713E-03  1.40373228E-02  6.88426223E-02  2.32184443E-01
  4.67941348E-01  3.62311985E-01 -1.19332420E-01 -1.60854152E-01  1.14345644E+00
  1.00000000E+00  1.00000000E+00  1.83473713E-03  1.40373228E-02  6.88426223E-02
  2.32184443E-01  4.67941348E-01  3.62311985E-01 -1.19332420E-01 -1.60854152E-01
  1.14345644E+00  1.00000000E+00  1.00000000E+00  1.83473713E-03  1.40373228E-02
  6.88426223E-02  2.32184443E-01  4.67941348E-01  3.62311985E-01 -1.19332420E-01
 -1.60854152E-01  1.14345644E+00  1.00000000E+00  1.00000000E+00  3.34946043E-02
  2.34726953E-01  8.13757326E-01  1.00000000E+00  3.34946043E-02  2.34726953E-01
  8.13757326E-01  1.00000000E+00  3.34946043E-02  2.34726953E-01  8.13757326E-01
  1.00000000E+00  3.34946043E-02  2.34726953E-01  8.13757326E-01  1.00000000E+00
  3.34946043E-02  2.34726953E-01  8.13757326E-01  1.00000000E+00
P(S=P) Contraction coefficients            R   N=         104
  0.00000000E+00  0.00000000E+00  0.00000000E+00  0.00000000E+00  0.00000000E+00
  0.00000000E+00  3.98940088E-03  3.03177067E-02  1.29880029E-01  3.27951072E-01
  4.53527100E-01  2.52154056E-01 -1.42993147E-02  3.23572333E-01  7.43507765E-01
  1.00000000E+00  0.00000000E+00  0.00000000E+00  0.00000000E+00  0.00000000E+00
  0.00000000E+00  0.00000000E+00  0.00000000E+00  3.98940088E-03  3.03177067E-02
  1.29880029E-01  3.27951072E-01  4.53527100E-01  2.52154056E-01 -1.42993147E-02
  3.23572333E-01  7.43507765E-01  1.00000000E+00  0.00000000E+00  0.00000000E+00
  0.00000000E+00  0.00000000E+00  0.00000000E+00  0.00000000E+00  0.00000000E+00
  3.98940088E-03  3.03177067E-02  1.29880029E-01  3.27951072E-01  4.53527100E-01
  2.52154056E-01 -1.42993147E-02  3.23572333E-01  7.43507765E-01  1.00000000E+00
  0.00000000E+00  0.00000000E+00  0.00000000E+00  0.00000000E+00  0.00000000E+00
  0.00000000E+00  0.00000000E+00  6.89990666E-02  3.16423961E-01  7.44308291E-01
  1.00000000E+00  0.00000000E+00  0.00000000E+00  0.00000000E+00  0.00000000E+00
  0.00000000E+00  0.00000000E+00  0.00000000E+00  6.89990666E-02  3.16423961E-01
  7.44308291E-01  1.00000000E+00  0.00000000E+00  0.00000000E+00  0.00000000E+00
  0.00000000E+00  0.00000000E+00  0.00000000E+00  0.00000000E+00  6.89990666E-02
  3.16423961E-01  7.44308291E-01  1.00000000E+00  0.00000000E+00  0.00000000E+00
  0.00000000E+00  0.00000000E+00  0.00000000E+00  0.00000000E+00  0.00000000E+00
  0.00000000E+00  0.00000000E+00  0.00000000E+00  0.00000000E+00  0.00000000E+00
  0.00000000E+00  0.00000000E+00  0.00000000E+00  0.00000000E+00  0.00000000E+00
  0.00000000E+00  0.00000000E+00  0.00000000E+00  0.00000000E+00
Coordinates of each shell                  R   N=         111
 -2.94026048E+00 -2.90416589E+00 -2.11808278E-01 -2.94026048E+00 -2.90416589E+00
 -2.11808278E-01 -2.94026048E+00 -2.90416589E+00 -2.11808278E-01 -2.94026048E+00
 -2.90416589E+00 -2.11808278E-01 -2.94026048E+00 -2.90416589E+00 -2.11808278E-01
  4.65387061E+00  2.37767133E-02  3.19474198E-02  4.65387061E+00  2.37767133E-02
  3.19474198E-02  4.65387061E+00  2.37767133E-02  3.19474198E-02  4.65387061E+00
  2.37767133E-02  3.19474198E-02  4.65387061E+00  2.37767133E-02  3.19474198E-02
 -2.02059600E+00  3.40531452E+00 -6.55710799E-01 -2.02059600E+00  3.40531452E+00
 -6.55710799E-01 -2.02059600E+00  3.40531452E+00 -6.55710799E-01 -2.02059600E+00
  3.40531452E+00 -6.55710799E-01 -2.02059600E+00  3.40531452E+00 -6.55710799E-01
 -2.43395441E-01 -1.22623342E+00  9.46589999E-01 -2.43395441E-01 -1.22623342E+00
  9.46589999E-01 -2.43395441E-01 -1.22623342E+00  9.46589999E-01 -2.43395441E-01
 -1.22623342E+00  9.46589999E-01  1.76756055E+00 -1.30248602E+00 -1.10185618E+00
  1.76756055E+00 -1.30248602E+00 -1.10185618E+00  1.76756055E+00 -1.30248602E+00
 -1.10185618E+00  1.76756055E+00 -1.30248602E+00 -1.10185618E+00 -9.73310976E-01
  1.40372206E+00  1.83481674E+00 -9.73310976E-01  1.40372206E+00  1.83481674E+00
 -9.73310976E-01  1.40372206E+00  1.83481674E+00 -9.73310976E-01  1.40372206E+00
  1.83481674E+00  4.25226099E-01 -2.26715869E+00  2.60293593E+00  4.25226099E-01
 -2.26715869E+00  2.60293593E+00  1.16721026E+00 -2.26927633E-01 -2.75201052E+00
  1.16721026E+00 -2.26927633E-01 -2.75201052E+00  2.14569281E+00 -3.25215060E+00
 -1.64553091E+00  2.14569281E+00 -3.25215060E+00 -1.64553091E+00 -2.49420548E+00
  1.27580681E+00  3.21919730E+00 -2.49420548E+00  1.27580681E+00  3.21919730E+00
  6.69711266E-01  2.29668351E+00  2.70282303E+00  6.69711266E-01  2.29668351E+00
  2.70282303E+00
Constraint Structure                       R   N=          33
 -2.94026048E+00 -2.90416589E+00 -2.11808278E-01  4.65387061E+00  2.37767133E-02
  3.19474198E-02 -2.02059600E+00  3.40531452E+00 -6.55710799E-01 -2.43395441E-01
 -1.22623342E+00  9.46589999E-01  1.76756055E+00 -1.30248602E+00 -1.10185618E+00
 -9.73310976E-01  1.40372206E+00  1.83481674E+00  4.25226099E-01 -2.26715869E+00
  2.60293593E+00  1.16721026E+00 -2.26927633E-01 -2.75201052E+00  2.14569281E+00
 -3.25215060E+00 -1.64553091E+00 -2.49420548E+00  1.27580681E+00  3.21919730E+00
  6.69711266E-01  2.29668351E+00  2.70282303E+00
Num ILSW                                   I              100
ILSW                                       I   N=         100
           0           1           0           0           2           0
           0           0           0           0           0          -1
           0           0           0           0           0           0
           0           0           0           0           1           0
           1           0           0           0           0           0
           0           0      100000           0          -1           0
           0           0           0           0           0           0
           0           0           0           1           1           0
           0           0           1           0           0           0
           0           0           4          40           0           0
           0           0           0           0           0           0
           0           0           0           0           0           0
           0           0           0           0           0           0
           0           0           0           0           0           0
           0           0           0           0           0           0
           0           0           0           0           0           0
           0           0           0           0
Num RLSW                                   I               40
RLSW                                       R   N=          40
  1.00000000E+00  1.00000000E+00  1.00000000E+00  1.00000000E+00  1.00000000E+00
  0.00000000E+00  0.00000000E+00  1.00000000E+00  0.00000000E+00  0.00000000E+00
  0.00000000E+00  0.00000000E+00  1.00000000E+00  0.00000000E+00  0.00000000E+00
  0.00000000E+00  0.00000000E+00  1.00000000E+00  0.00000000E+00  0.00000000E+00
  0.00000000E+00  0.00000000E+00  1.00000000E+00  0.00000000E+00  0.00000000E+00
  0.00000000E+00  0.00000000E+00  1.00000000E+00  0.00000000E+00  0.00000000E+00
  0.00000000E+00  0.00000000E+00  0.00000000E+00  0.00000000E+00  0.00000000E+00
  0.00000000E+00  0.00000000E+00  0.00000000E+00  1.00000000E+00  1.00000000E+00
MxBond                                     I                4
NBond                                      I   N=          11
           1           1           1           4           4           4
           1           1           1           1           1
IBond                                      I   N=          44
           4           0           0           0           5           0
           0           0           6           0           0           0
           1           5           6           7           2           4
           8           9           3           4          10          11
           4           0           0           0           5           0
           0           0           5           0           0           0
           6           0           0           0           6           0
           0           0
RBond                                      R   N=          44
  1.00000000E+00  0.00000000E+00  0.00000000E+00  0.00000000E+00  1.00000000E+00
  0.00000000E+00  0.00000000E+00  0.00000000E+00  1.00000000E+00  0.00000000E+00
  0.00000000E+00  0.00000000E+00  1.00000000E+00  1.00000000E+00  1.00000000E+00
  1.00000000E+00  1.00000000E+00  1.00000000E+00  1.00000000E+00  1.00000000E+00
  1.00000000E+00  1.00000000E+00  1.00000000E+00  1.00000000E+00  1.00000000E+00
  0.00000000E+00  0.00000000E+00  0.00000000E+00  1.00000000E+00  0.00000000E+00
  0.00000000E+00  0.00000000E+00  1.00000000E+00  0.00000000E+00  0.00000000E+00
  0.00000000E+00  1.00000000E+00  0.00000000E+00  0.00000000E+00  0.00000000E+00
  1.00000000E+00  0.00000000E+00  0.00000000E+00  0.00000000E+00
Virial Ratio                               R      2.000432375019386E+00
SCF Energy                                 R     -1.494962560351029E+03
MP2 Energy                                 R     -1.495747141256806E+03
Total Energy                               R     -1.495747141256806E+03
Post-SCF wavefunction norm                 R      1.598267307997783E+00
RMS Force                                  R      5.956344034197102E-07
RMS Density                                R      1.287334371522115E-09
External E-field                           R   N=          35
  0.00000000E+00  0.00000000E+00  0.00000000E+00  0.00000000E+00  0.00000000E+00
  0.00000000E+00  0.00000000E+00  0.00000000E+00  0.00000000E+00  0.00000000E+00
  0.00000000E+00  0.00000000E+00  0.00000000E+00  0.00000000E+00  0.00000000E+00
  0.00000000E+00  0.00000000E+00  0.00000000E+00  0.00000000E+00  0.00000000E+00
  0.00000000E+00  0.00000000E+00  0.00000000E+00  0.00000000E+00  0.00000000E+00
  0.00000000E+00  0.00000000E+00  0.00000000E+00  0.00000000E+00  0.00000000E+00
  0.00000000E+00  0.00000000E+00  0.00000000E+00  0.00000000E+00  0.00000000E+00
IOpCl                                      I                0
IROHF                                      I                0
Alpha Orbital Energies                     R   N=         112
 -1.04831794E+02 -1.04830462E+02 -1.04825213E+02 -1.13358646E+01 -1.13178948E+01
 -1.13178459E+01 -1.05658808E+01 -1.05646351E+01 -1.05593217E+01 -8.03517443E+00
 -8.03396392E+00 -8.03189805E+00 -8.03176790E+00 -8.03071066E+00 -8.03057506E+00
 -8.02869738E+00 -8.02537481E+00 -8.02522814E+00 -1.21113227E+00 -1.14377319E+00
 -1.12446161E+00 -1.00216076E+00 -9.39148125E-01 -8.13083777E-01 -7.00860399E-01
 -6.73863720E-01 -6.23424215E-01 -5.96683189E-01 -5.84139339E-01 -5.50722947E-01
 -5.26328998E-01 -4.69783866E-01 -4.59887914E-01 -4.55788162E-01 -4.52915082E-01
 -4.43139081E-01 -4.39590942E-01  1.64265865E-01  1.84701192E-01  1.99206631E-01
  2.34542205E-01  2.65346086E-01  2.69106972E-01  2.84067793E-01  3.05802936E-01
  3.37285293E-01  3.61434449E-01  5.23720137E-01  5.66002243E-01  5.73215854E-01
  5.92248997E-01  6.01289337E-01  6.11596036E-01  6.22772900E-01  6.40923810E-01
  6.72319303E-01  6.81129961E-01  6.91930650E-01  7.12430113E-01  7.19506863E-01
  7.43322510E-01  7.75619337E-01  7.95768475E-01  8.44828977E-01  8.81268229E-01
  9.23653559E-01  9.62469480E-01  9.82561839E-01  1.07476881E+00  1.09786458E+00
  1.10548567E+00  1.11912678E+00  1.12781460E+00  1.13718033E+00  1.14742425E+00
  1.15655483E+00  1.16722868E+00  1.17145051E+00  1.18809159E+00  1.21298917E+00
  1.21616788E+00  1.23928776E+00  1.29140098E+00  1.32187139E+00  1.35601888E+00
  1.39268098E+00  1.40723171E+00  1.47747408E+00  1.49579754E+00  1.70596236E+00
  1.73992239E+00  1.81151973E+00  1.84064512E+00  1.99908625E+00  2.15032670E+00
  2.18943567E+00  2.24210119E+00  2.31854151E+00  2.38122922E+00  2.45960146E+00
  2.53877864E+00  2.57297095E+00  2.64204646E+00  2.69753271E+00  2.87274683E+00
  2.96782185E+00  4.44900108E+00  4.59287431E+00  4.69034557E+00  4.74138660E+00
  4.76077239E+00  4.86037165E+00
Alpha MO coefficients                      R   N=       12544
  9.96116394E-01  1.46433159E-02  4.69551224E-05  3.02777587E-05  1.83550590E-05
 -1.77384881E-02 -5.20795168E-05 -4.04868397E-05 -1.43695482E-05  1.50315627E-03
  6.54064317E-05  4.88562627E-05  2.02371386E-05  6.25724765E-03  6.25379996E-03
  6.25686390E-03 -8.85043045E-07  1.35487502E-06  1.73772396E-06  1.58011303E-04
  1.62036910E-06 -1.24611920E-06 -5.35137938E-07 -1.17407095E-07 -3.94769214E-06
  7.09620026E-06  3.17278464E-06  1.18362510E-06 -1.36523432E-05  3.60466924E-07
  5.69316703E-06  1.08320442E-05 -1.20548670E-06 -1.56931223E-06 -3.88889696E-06
 -1.12677179E-06 -7.39952756E-07 -1.89843863E-06  2.21203105E-05  6.93963072E-06
  9.87313958E-07  1.73907806E-06  3.95637380E-07  7.44046353E-06 -5.35480729E-06
 -1.41162396E-05 -1.03675524E-06 -7.00533710E-05  1.12564605E-05  5.05939557E-05
 -1.21939802E-05  2.01462932E-05  4.93415714E-06  1.53024543E-05 -3.01326672E-06
 -2.19548203E-06  7.51517443E-07 -1.15370326E-05  1.06111963E-05 -4.18272691E-05
 -3.19781082E-05 -1.24698427E-05  2.23453610E-04  4.11510233E-05  6.11058669E-05
 -5.60827723E-05 -3.03334112E-05 -2.08401542E-05 -1.74601951E-05 -1.31803297E-05
 -1.51782122E-05  2.39558675E-06 -1.55601745E-06  1.72293427E-05  9.64179880E-06
  1.39089348E-06 -7.96167294E-06 -7.43212023E-05  1.05835403E-04 -4.99868126E-06
 -4.23495665E-05 -2.40212002E-05 -1.08885527E-05 -1.33848070E-05 -1.27280157E-07
  6.70206400E-06  2.93830153E-06 -2.79586492E-06  1.15828109E-05  2.33144614E-06
  1.64802241E-05  1.82352364E-06 -4.94337780E-06 -1.21746111E-05  6.61181983E-05
  4.93673087E-05 -9.49138507E-06 -2.51997443E-05 -1.43751775E-05 -6.77604313E-06
 -9.34721289E-07 -1.01224229E-05 -1.09635912E-05 -5.68140329E-05  1.30008033E-05
 -2.65898267E-05  1.05040449E-05 -5.89324390E-05  5.77015855E-06 -5.86325346E-05
 -1.74152366E-06 -2.38759932E-05 -1.58255335E-04 -3.53956368E-06  9.82065113E-07
  2.79166778E-07  2.73786719E-07 -9.79712107E-08 -5.53750874E-06 -2.15344205E-06
 -2.40140444E-06  9.00940249E-06  1.16112130E-05 -2.31631446E-06  4.51849488E-07
 -2.52256427E-06 -4.46141895E-06 -7.10682571E-06 -6.48679870E-07  1.91201865E-06
 -1.02749957E-06  9.96116310E-01  1.46447889E-02 -5.14544185E-05 -2.06558841E-05
 -1.51783093E-05 -1.77403870E-02  5.56644000E-05  1.39789320E-05  6.58653774E-06
  1.51898386E-03 -8.73462050E-05 -2.18871175E-05 -1.34843038E-05  6.26206271E-03
  6.25910694E-03  6.26057888E-03  1.92210488E-06  1.98150523E-06  2.95492169E-06
 -3.86354917E-05  8.47770183E-07 -2.63913216E-06  1.07122237E-06 -2.29002540E-07
  1.12009971E-06  1.31931094E-05 -5.75067621E-06  2.07981798E-06 -8.06090785E-06
 -1.52454123E-05 -3.81853035E-06 -9.17794845E-06  5.84766067E-06  8.96962355E-06
  1.20668004E-06 -1.18382335E-06  3.59860372E-07  7.29483084E-09 -3.03121638E-06
  1.14373258E-05 -1.40597574E-05 -1.43598371E-06  4.90315443E-06  3.67973888E-06
 -7.13532934E-05  4.08479769E-05  7.09623089E-05 -2.91532479E-05 -6.03082894E-06
 -1.68218674E-05 -3.63124530E-06  6.91351453E-06  2.24140310E-06 -8.48741825E-06
  2.66491021E-05  5.61440900E-05  2.03863586E-05  1.82746888E-05  1.53868084E-04
 -9.47306367E-05 -1.77702260E-05  1.38226181E-05 -2.88591100E-05 -2.24935315E-05
 -1.09572696E-05 -8.66947771E-06 -1.49230540E-05 -2.46515962E-06  2.42793990E-06
  1.47386446E-05  3.07696693E-06 -2.02434317E-06 -1.06667095E-05 -3.24822519E-05
 -2.09697895E-05  6.90337097E-05  6.44377677E-05 -2.04546963E-06  5.07734891E-07
  6.61090256E-06  4.73880910E-06  4.28373851E-06 -1.71282966E-06  1.10225643E-05
 -5.84831212E-05 -1.59074990E-05 -8.15123144E-05 -1.45936097E-05 -7.02643073E-05
 -3.06765910E-06 -2.99424310E-05  8.72058065E-06 -8.23823723E-05 -2.17782608E-05
  7.04263059E-06  8.77943945E-07 -1.73953394E-06  5.30750981E-07  1.05188151E-05
 -3.01915445E-06  1.40907676E-05 -2.77213634E-06 -8.98165630E-05 -2.12617012E-05
 -5.97950306E-05  4.30876037E-06  1.48414013E-05  5.03615483E-06  2.22108532E-05
 -3.72169928E-06 -1.29609427E-06  1.41990347E-06  3.88495922E-05  1.68999821E-06
  2.53214079E-06 -1.39990987E-06  4.22146622E-07 -1.34320530E-06 -1.31630298E-05
  6.29692637E-06 -2.60360037E-06  2.97116463E-06  2.81283211E-06 -8.64730871E-06
  1.01244121E-05  9.21208165E-06  3.46648638E-06  4.01829871E-06 -1.77656677E-07
 -1.81773775E-06 -2.31933378E-06  9.96116251E-01  1.46438412E-02  2.00876489E-05
 -3.81968588E-05  3.97448141E-05 -1.77436940E-02 -2.24593715E-05  4.65732658E-05
 -2.86421596E-05  1.53859716E-03  3.97327751E-05 -7.79261232E-05  5.44188178E-05
  6.25621329E-03  6.25802343E-03  6.26276786E-03 -2.31622555E-06  2.32837592E-06
 -3.37111116E-06 -3.56166658E-06  7.35222044E-06  6.71191542E-06 -1.94950426E-05
  2.07943333E-06  2.15888076E-05  2.52875263E-05 -5.04289382E-05 -4.83988561E-05
 -9.05394259E-06 -2.91761437E-05 -1.10538554E-05  1.02358104E-05 -3.16664974E-06
  3.43242525E-06  1.39160418E-06  1.13478508E-05  2.93122448E-06  9.76123576E-06
  8.75473275E-06 -6.80406532E-06  2.43350200E-05 -4.59123260E-05 -7.99955101E-05
 -3.85722376E-06 -6.75557450E-07  4.07404272E-06  6.22525227E-06  3.44998740E-06
 -1.50031256E-06 -8.31841136E-06  3.12931787E-05 -2.10261228E-05  4.37777280E-05
 -4.11946158E-05  1.19652445E-04  3.34142435E-05 -8.77684318E-05  4.13517214E-05
 -2.13366478E-05 -1.71506751E-05 -3.11965750E-05  2.26982069E-06 -8.36165379E-06
  1.81908053E-05 -4.43811813E-07 -1.89324747E-07  6.77339643E-06 -8.29776962E-05
 -5.93164728E-06 -3.97653249E-05 -1.74059972E-05 -6.86117430E-05 -1.48053017E-05
 -7.58537273E-05 -3.17249470E-05  8.96432116E-05 -5.22860776E-05 -3.92650285E-05
 -1.82238514E-05  3.01235716E-04  4.32774705E-04  3.04348429E-04  1.58138623E-04
  2.66460136E-03  1.26608114E-03  8.59577345E-04  5.20935718E-04 -1.04947486E-04
 -6.06941090E-05 -1.18276924E-04  4.48464600E-05 -1.37958968E-06 -1.05636057E-05
  6.02976334E-08 -2.84704298E-05 -1.24081981E-05 -8.92955491E-06 -4.29038646E-06
 -1.90479962E-05  9.77240486E-05  5.72359137E-05  2.09973924E-05  1.40959821E-04
 -5.69815024E-05 -9.99939546E-05 -6.41422861E-05 -6.96359193E-05 -9.25571957E-05
 -3.51603680E-05  1.09670253E-06 -4.90736038E-05  1.78481445E-05  2.32396533E-07
 -4.53044937E-05  6.83721907E-06 -1.94756798E-05  1.27487192E-05 -3.50671878E-05
 -5.04775517E-05  1.38713373E-04 -8.51459287E-05  2.14490223E-04  6.60878947E-05
 -1.48587244E-04  8.99235969E-05 -1.40042247E-04 -5.17826724E-05 -1.08156099E-04
 -3.05018968E-05 -2.87558773E-06  4.66884941E-05  9.95701507E-01  2.81311101E-02
 -5.81328608E-04 -1.91339864E-04 -3.85995750E-04 -1.77504343E-02  4.70760075E-04
 -5.15380679E-04  1.01693315E-03 -1.52663428E-03 -1.37470743E-03 -1.29642794E-03
 -1.77334314E-04 -8.33489979E-05 -8.33920667E-05  1.72713145E-02  4.97087732E-04
 -7.88282286E-05  2.19198743E-05  7.52409893E-05  4.22033979E-03 -1.57499722E-03
  1.31549455E-04  1.23570111E-03 -3.17689567E-04 -1.60089595E-04 -3.33565334E-04
 -4.59780934E-05  1.97297923E-04 -2.86449433E-07  1.73475552E-02  5.14983310E-04
  4.10568975E-05 -9.54816964E-05 -6.19085662E-05  4.03984494E-03  3.43062419E-04
 -1.77878196E-03 -7.06448915E-04 -1.76823976E-04 -4.75034273E-04 -1.62622952E-04
  1.00409990E-04  2.07807535E-05 -5.31570675E-05  2.70195041E-04  2.35517933E-03
 -1.64449697E-04 -1.11653518E-04 -1.14643273E-04 -1.25489209E-04 -1.21421915E-04
 -1.58747100E-04 -1.21022109E-04  2.23470388E-05  5.17839229E-07 -8.90475238E-06
  5.24810097E-06  2.45567410E-06  1.37711775E-06 -1.84395555E-05 -5.36503457E-05
 -1.67793733E-05  1.85756882E-08 -7.37055446E-05 -5.98674333E-05  3.39985592E-05
 -1.00853089E-05 -9.55791761E-06 -4.79727098E-05  2.22520872E-05  2.04044529E-05
 -5.25764030E-05 -1.80004649E-06 -3.19482507E-05  7.44871919E-05  5.30433833E-05
  1.60307360E-05  1.51116498E-05  2.61740634E-04 -4.32183282E-04 -1.54315510E-04
 -1.35054278E-04  2.68329004E-03 -1.39827477E-03 -6.09189623E-04 -4.29631595E-04
 -9.04173268E-05 -1.32581253E-04 -1.57941911E-04 -6.83575557E-06 -1.99312551E-05
 -2.77947177E-05  1.14125563E-05 -2.91754419E-05  2.21632679E-05 -2.17453258E-05
  1.98278257E-05 -6.02847912E-05 -1.36180390E-04  1.53395440E-04 -1.56845740E-04
 -1.04476481E-03 -1.72800252E-04  4.06637198E-04 -3.15822280E-04  8.09165579E-06
 -1.07091361E-05  5.00665911E-05  2.67451618E-05 -1.70398214E-05  7.37874267E-06
 -1.12322094E-02 -2.31746130E-04  8.32295345E-05 -1.91350134E-05 -4.06621454E-05
  2.37131114E-03  1.54574331E-03 -9.02659294E-04 -1.37622453E-03 -1.94418401E-04
 -1.64184846E-05 -2.11046602E-04 -1.57527599E-05  1.79845440E-04  1.27446868E-05
  9.46658057E-01  2.68324812E-02  4.78711278E-04  3.97685012E-04  5.39240734E-04
 -1.52508571E-02 -1.09739123E-04 -7.59857566E-04 -1.25912400E-03 -1.66694964E-03
 -1.40296077E-03 -1.45476371E-03 -1.67692671E-04 -8.31076339E-05 -9.06879695E-05
 -3.09193105E-01 -9.02584838E-03 -6.30991604E-05 -3.78696009E-05  3.37736473E-04
  5.82582846E-03  5.79264830E-04 -2.05769284E-04 -8.21224555E-04  3.63049475E-04
  4.55397695E-04  4.57763756E-04 -4.17146969E-05 -9.66622466E-06 -2.06865254E-05
 -1.09631005E-04 -6.14493839E-05  2.24568236E-04  2.44168690E-03  1.96332573E-04