69032                                                                   
Freq      RMP2-FC                                                     6-31G(d)            
Number of atoms                            I               21
Info1-9                                    I   N=           9
          33          31        1002           0           0         100
           6           2           1
Charge                                     I                0
Multiplicity                               I                1
Number of electrons                        I               90
Number of alpha electrons                  I               45
Number of beta electrons                   I               45
Number of basis functions                  I              189
Number of independent functions            I              189
Number of point charges in /Mol/           I                0
Number of translation vectors              I                0
Atomic numbers                             I   N=          21
          16           8           8           6           6           6
           6           6           6           6           6           1
           1           1           1           1           1           1
           1           1           1
Nuclear charges                            R   N=          21
  1.60000000E+01  8.00000000E+00  8.00000000E+00  6.00000000E+00  6.00000000E+00
  6.00000000E+00  6.00000000E+00  6.00000000E+00  6.00000000E+00  6.00000000E+00
  6.00000000E+00  1.00000000E+00  1.00000000E+00  1.00000000E+00  1.00000000E+00
  1.00000000E+00  1.00000000E+00  1.00000000E+00  1.00000000E+00  1.00000000E+00
  1.00000000E+00
Current cartesian coordinates              R   N=          63
  2.06533084E+00  4.71978953E-06 -8.78996705E-01  2.72617648E+00 -2.42535011E+00
 -2.07346010E+00  2.72617371E+00  2.42536634E+00 -2.07344766E+00  3.38689008E+00
 -2.81843280E-06  2.24770035E+00 -1.25223332E+00  1.17708043E-06 -3.08953944E-01
  6.26312051E+00 -1.21997471E-05  2.09822111E+00 -2.51216290E+00  2.30650257E+00
 -6.50460432E-02 -2.51215988E+00 -2.30650303E+00 -6.50564149E-02 -5.10023180E+00
  2.29041472E+00  4.40148635E-01 -5.10022864E+00 -2.29042074E+00  4.40138644E-01
 -6.38795228E+00 -4.41684605E-06  7.06477039E-01  2.65419096E+00  1.68405388E+00
  3.19743985E+00  2.65417980E+00 -1.68405577E+00  3.19743795E+00  7.05356481E+00
 -9.59330136E-06  4.00561154E+00  6.93345987E+00 -1.67764216E+00  1.10219286E+00
  6.93346998E+00  1.67760931E+00  1.10218515E+00 -1.48450373E+00  4.06451070E+00
 -3.31940001E-01 -1.48449842E+00 -4.06450861E+00 -3.31958440E-01 -6.11466158E+00
  4.06768893E+00  6.19599661E-01 -6.11465603E+00 -4.06769706E+00  6.19582467E-01
 -8.40489130E+00 -6.59118303E-06  1.09728207E+00
Force Field                                I                0
Int Atom Types                             I   N=          21
           0           0           0           0           0           0
           0           0           0           0           0           0
           0           0           0           0           0           0
           0           0           0
MM charges                                 R   N=          21
  0.00000000E+00  0.00000000E+00  0.00000000E+00  0.00000000E+00  0.00000000E+00
  0.00000000E+00  0.00000000E+00  0.00000000E+00  0.00000000E+00  0.00000000E+00
  0.00000000E+00  0.00000000E+00  0.00000000E+00  0.00000000E+00  0.00000000E+00
  0.00000000E+00  0.00000000E+00  0.00000000E+00  0.00000000E+00  0.00000000E+00
  0.00000000E+00
Integer atomic weights                     I   N=          21
          32          16          16          12          12          12
          12          12          12          12          12           1
           1           1           1           1           1           1
           1           1           1
Real atomic weights                        R   N=          21
  3.19720718E+01  1.59949146E+01  1.59949146E+01  1.20000000E+01  1.20000000E+01
  1.20000000E+01  1.20000000E+01  1.20000000E+01  1.20000000E+01  1.20000000E+01
  1.20000000E+01  1.00782504E+00  1.00782504E+00  1.00782504E+00  1.00782504E+00
  1.00782504E+00  1.00782504E+00  1.00782504E+00  1.00782504E+00  1.00782504E+00
  1.00782504E+00
Atom fragment info                         I   N=          21
           0           0           0           0           0           0
           0           0           0           0           0           0
           0           0           0           0           0           0
           0           0           0
Atom residue num                           I   N=          21
           0           0           0           0           0           0
           0           0           0           0           0           0
           0           0           0           0           0           0
           0           0           0
Nuclear spins                              I   N=          21
           0           0           0           0           0           0
           0           0           0           0           0           1
           1           1           1           1           1           1
           1           1           1
Nuclear ZEff                               R   N=          21
 -1.36000000E+01 -5.60000000E+00 -5.60000000E+00 -3.60000000E+00 -3.60000000E+00
 -3.60000000E+00 -3.60000000E+00 -3.60000000E+00 -3.60000000E+00 -3.60000000E+00
 -3.60000000E+00 -1.00000000E+00 -1.00000000E+00 -1.00000000E+00 -1.00000000E+00
 -1.00000000E+00 -1.00000000E+00 -1.00000000E+00 -1.00000000E+00 -1.00000000E+00
 -1.00000000E+00
Nuclear QMom                               R   N=          21
  0.00000000E+00  0.00000000E+00  0.00000000E+00  0.00000000E+00  0.00000000E+00
  0.00000000E+00  0.00000000E+00  0.00000000E+00  0.00000000E+00  0.00000000E+00
  0.00000000E+00  0.00000000E+00  0.00000000E+00  0.00000000E+00  0.00000000E+00
  0.00000000E+00  0.00000000E+00  0.00000000E+00  0.00000000E+00  0.00000000E+00
  0.00000000E+00
Nuclear GFac                               R   N=          21
  0.00000000E+00  0.00000000E+00  0.00000000E+00  0.00000000E+00  0.00000000E+00
  0.00000000E+00  0.00000000E+00  0.00000000E+00  0.00000000E+00  0.00000000E+00
  0.00000000E+00  2.79284600E+00  2.79284600E+00  2.79284600E+00  2.79284600E+00
  2.79284600E+00  2.79284600E+00  2.79284600E+00  2.79284600E+00  2.79284600E+00
  2.79284600E+00
MicOpt                                     I   N=          21
          -1          -1          -1          -1          -1          -1
          -1          -1          -1          -1          -1          -1
          -1          -1          -1          -1          -1          -1
          -1          -1          -1
Number of contracted shells                I               65
Number of primitive shells                 I              167
Pure/Cartesian d shells                    I                1
Pure/Cartesian f shells                    I                0
Highest angular momentum                   I                2
Largest degree of contraction              I                6
Shell types                                I   N=          65
           0          -1          -1          -1           2           0
          -1          -1           2           0          -1          -1
           2           0          -1          -1           2           0
          -1          -1           2           0          -1          -1
           2           0          -1          -1           2           0
          -1          -1           2           0          -1          -1
           2           0          -1          -1           2           0
          -1          -1           2           0           0           0
           0           0           0           0           0           0
           0           0           0           0           0           0
           0           0           0           0           0
Number of primitives per shell             I   N=          65
           6           6           3           1           1           6
           3           1           1           6           3           1
           1           6           3           1           1           6
           3           1           1           6           3           1
           1           6           3           1           1           6
           3           1           1           6           3           1
           1           6           3           1           1           6
           3           1           1           3           1           3
           1           3           1           3           1           3
           1           3           1           3           1           3
           1           3           1           3           1
Shell to atom map                          I   N=          65
           1           1           1           1           1           2
           2           2           2           3           3           3
           3           4           4           4           4           5
           5           5           5           6           6           6
           6           7           7           7           7           8
           8           8           8           9           9           9
           9          10          10          10          10          11
          11          11          11          12          12          13
          13          14          14          15          15          16
          16          17          17          18          18          19
          19          20          20          21          21
Primitive exponents                        R   N=         167
  2.19171000E+04  3.30149000E+03  7.54146000E+02  2.12711000E+02  6.79896000E+01
  2.30515000E+01  4.23735000E+02  1.00710000E+02  3.21599000E+01  1.18079000E+01
  4.63110000E+00  1.87025000E+00  2.61584000E+00  9.22167000E-01  3.41287000E-01
  1.17167000E-01  6.50000000E-01  5.48467166E+03  8.25234946E+02  1.88046958E+02
  5.29645000E+01  1.68975704E+01  5.79963534E+00  1.55396162E+01  3.59993359E+00
  1.01376175E+00  2.70005823E-01  8.00000000E-01  5.48467166E+03  8.25234946E+02
  1.88046958E+02  5.29645000E+01  1.68975704E+01  5.79963534E+00  1.55396162E+01
  3.59993359E+00  1.01376175E+00  2.70005823E-01  8.00000000E-01  3.04752488E+03
  4.57369518E+02  1.03948685E+02  2.92101553E+01  9.28666296E+00  3.16392696E+00
  7.86827235E+00  1.88128854E+00  5.44249258E-01  1.68714478E-01  8.00000000E-01
  3.04752488E+03  4.57369518E+02  1.03948685E+02  2.92101553E+01  9.28666296E+00
  3.16392696E+00  7.86827235E+00  1.88128854E+00  5.44249258E-01  1.68714478E-01
  8.00000000E-01  3.04752488E+03  4.57369518E+02  1.03948685E+02  2.92101553E+01
  9.28666296E+00  3.16392696E+00  7.86827235E+00  1.88128854E+00  5.44249258E-01
  1.68714478E-01  8.00000000E-01  3.04752488E+03  4.57369518E+02  1.03948685E+02
  2.92101553E+01  9.28666296E+00  3.16392696E+00  7.86827235E+00  1.88128854E+00
  5.44249258E-01  1.68714478E-01  8.00000000E-01  3.04752488E+03  4.57369518E+02
  1.03948685E+02  2.92101553E+01  9.28666296E+00  3.16392696E+00  7.86827235E+00
  1.88128854E+00  5.44249258E-01  1.68714478E-01  8.00000000E-01  3.04752488E+03
  4.57369518E+02  1.03948685E+02  2.92101553E+01  9.28666296E+00  3.16392696E+00
  7.86827235E+00  1.88128854E+00  5.44249258E-01  1.68714478E-01  8.00000000E-01
  3.04752488E+03  4.57369518E+02  1.03948685E+02  2.92101553E+01  9.28666296E+00
  3.16392696E+00  7.86827235E+00  1.88128854E+00  5.44249258E-01  1.68714478E-01
  8.00000000E-01  3.04752488E+03  4.57369518E+02  1.03948685E+02  2.92101553E+01
  9.28666296E+00  3.16392696E+00  7.86827235E+00  1.88128854E+00  5.44249258E-01
  1.68714478E-01  8.00000000E-01  1.87311370E+01  2.82539436E+00  6.40121692E-01
  1.61277759E-01  1.87311370E+01  2.82539436E+00  6.40121692E-01  1.61277759E-01
  1.87311370E+01  2.82539436E+00  6.40121692E-01  1.61277759E-01  1.87311370E+01
  2.82539436E+00  6.40121692E-01  1.61277759E-01  1.87311370E+01  2.82539436E+00
  6.40121692E-01  1.61277759E-01  1.87311370E+01  2.82539436E+00  6.40121692E-01
  1.61277759E-01  1.87311370E+01  2.82539436E+00  6.40121692E-01  1.61277759E-01
  1.87311370E+01  2.82539436E+00  6.40121692E-01  1.61277759E-01  1.87311370E+01
  2.82539436E+00  6.40121692E-01  1.61277759E-01  1.87311370E+01  2.82539436E+00
  6.40121692E-01  1.61277759E-01
Contraction coefficients                   R   N=         167
  1.86924085E-03  1.42303065E-02  6.96962317E-02  2.38487108E-01  4.83307220E-01
  3.38074154E-01 -2.37677050E-03 -3.16930067E-02 -1.13317024E-01  5.60900118E-02
  5.92255124E-01  4.55006095E-01 -2.50373114E-01  6.69567631E-02  1.05450627E+00
  1.00000000E+00  1.00000000E+00  1.83107443E-03  1.39501722E-02  6.84450781E-02
  2.32714336E-01  4.70192898E-01  3.58520853E-01 -1.10777550E-01 -1.48026263E-01
  1.13076702E+00  1.00000000E+00  1.00000000E+00  1.83107443E-03  1.39501722E-02
  6.84450781E-02  2.32714336E-01  4.70192898E-01  3.58520853E-01 -1.10777550E-01
 -1.48026263E-01  1.13076702E+00  1.00000000E+00  1.00000000E+00  1.83473713E-03
  1.40373228E-02  6.88426223E-02  2.32184443E-01  4.67941348E-01  3.62311985E-01
 -1.19332420E-01 -1.60854152E-01  1.14345644E+00  1.00000000E+00  1.00000000E+00
  1.83473713E-03  1.40373228E-02  6.88426223E-02  2.32184443E-01  4.67941348E-01
  3.62311985E-01 -1.19332420E-01 -1.60854152E-01  1.14345644E+00  1.00000000E+00
  1.00000000E+00  1.83473713E-03  1.40373228E-02  6.88426223E-02  2.32184443E-01
  4.67941348E-01  3.62311985E-01 -1.19332420E-01 -1.60854152E-01  1.14345644E+00
  1.00000000E+00  1.00000000E+00  1.83473713E-03  1.40373228E-02  6.88426223E-02
  2.32184443E-01  4.67941348E-01  3.62311985E-01 -1.19332420E-01 -1.60854152E-01
  1.14345644E+00  1.00000000E+00  1.00000000E+00  1.83473713E-03  1.40373228E-02
  6.88426223E-02  2.32184443E-01  4.67941348E-01  3.62311985E-01 -1.19332420E-01
 -1.60854152E-01  1.14345644E+00  1.00000000E+00  1.00000000E+00  1.83473713E-03
  1.40373228E-02  6.88426223E-02  2.32184443E-01  4.67941348E-01  3.62311985E-01
 -1.19332420E-01 -1.60854152E-01  1.14345644E+00  1.00000000E+00  1.00000000E+00
  1.83473713E-03  1.40373228E-02  6.88426223E-02  2.32184443E-01  4.67941348E-01
  3.62311985E-01 -1.19332420E-01 -1.60854152E-01  1.14345644E+00  1.00000000E+00
  1.00000000E+00  1.83473713E-03  1.40373228E-02  6.88426223E-02  2.32184443E-01
  4.67941348E-01  3.62311985E-01 -1.19332420E-01 -1.60854152E-01  1.14345644E+00
  1.00000000E+00  1.00000000E+00  3.34946043E-02  2.34726953E-01  8.13757326E-01
  1.00000000E+00  3.34946043E-02  2.34726953E-01  8.13757326E-01  1.00000000E+00
  3.34946043E-02  2.34726953E-01  8.13757326E-01  1.00000000E+00  3.34946043E-02
  2.34726953E-01  8.13757326E-01  1.00000000E+00  3.34946043E-02  2.34726953E-01
  8.13757326E-01  1.00000000E+00  3.34946043E-02  2.34726953E-01  8.13757326E-01
  1.00000000E+00  3.34946043E-02  2.34726953E-01  8.13757326E-01  1.00000000E+00
  3.34946043E-02  2.34726953E-01  8.13757326E-01  1.00000000E+00  3.34946043E-02
  2.34726953E-01  8.13757326E-01  1.00000000E+00  3.34946043E-02  2.34726953E-01
  8.13757326E-01  1.00000000E+00
P(S=P) Contraction coefficients            R   N=         167
  0.00000000E+00  0.00000000E+00  0.00000000E+00  0.00000000E+00  0.00000000E+00
  0.00000000E+00  4.06100998E-03  3.06812999E-02  1.30451999E-01  3.27204999E-01
  4.52850998E-01  2.56041999E-01 -1.45104895E-02  3.10262776E-01  7.54482456E-01
  1.00000000E+00  0.00000000E+00  0.00000000E+00  0.00000000E+00  0.00000000E+00
  0.00000000E+00  0.00000000E+00  0.00000000E+00  7.08742682E-02  3.39752839E-01
  7.27158577E-01  1.00000000E+00  0.00000000E+00  0.00000000E+00  0.00000000E+00
  0.00000000E+00  0.00000000E+00  0.00000000E+00  0.00000000E+00  7.08742682E-02
  3.39752839E-01  7.27158577E-01  1.00000000E+00  0.00000000E+00  0.00000000E+00
  0.00000000E+00  0.00000000E+00  0.00000000E+00  0.00000000E+00  0.00000000E+00
  6.89990666E-02  3.16423961E-01  7.44308291E-01  1.00000000E+00  0.00000000E+00
  0.00000000E+00  0.00000000E+00  0.00000000E+00  0.00000000E+00  0.00000000E+00
  0.00000000E+00  6.89990666E-02  3.16423961E-01  7.44308291E-01  1.00000000E+00
  0.00000000E+00  0.00000000E+00  0.00000000E+00  0.00000000E+00  0.00000000E+00
  0.00000000E+00  0.00000000E+00  6.89990666E-02  3.16423961E-01  7.44308291E-01
  1.00000000E+00  0.00000000E+00  0.00000000E+00  0.00000000E+00  0.00000000E+00
  0.00000000E+00  0.00000000E+00  0.00000000E+00  6.89990666E-02  3.16423961E-01
  7.44308291E-01  1.00000000E+00  0.00000000E+00  0.00000000E+00  0.00000000E+00
  0.00000000E+00  0.00000000E+00  0.00000000E+00  0.00000000E+00  6.89990666E-02
  3.16423961E-01  7.44308291E-01  1.00000000E+00  0.00000000E+00  0.00000000E+00
  0.00000000E+00  0.00000000E+00  0.00000000E+00  0.00000000E+00  0.00000000E+00
  6.89990666E-02  3.16423961E-01  7.44308291E-01  1.00000000E+00  0.00000000E+00
  0.00000000E+00  0.00000000E+00  0.00000000E+00  0.00000000E+00  0.00000000E+00
  0.00000000E+00  6.89990666E-02  3.16423961E-01  7.44308291E-01  1.00000000E+00
  0.00000000E+00  0.00000000E+00  0.00000000E+00  0.00000000E+00  0.00000000E+00
  0.00000000E+00  0.00000000E+00  6.89990666E-02  3.16423961E-01  7.44308291E-01
  1.00000000E+00  0.00000000E+00  0.00000000E+00  0.00000000E+00  0.00000000E+00
  0.00000000E+00  0.00000000E+00  0.00000000E+00  0.00000000E+00  0.00000000E+00
  0.00000000E+00  0.00000000E+00  0.00000000E+00  0.00000000E+00  0.00000000E+00
  0.00000000E+00  0.00000000E+00  0.00000000E+00  0.00000000E+00  0.00000000E+00
  0.00000000E+00  0.00000000E+00  0.00000000E+00  0.00000000E+00  0.00000000E+00
  0.00000000E+00  0.00000000E+00  0.00000000E+00  0.00000000E+00  0.00000000E+00
  0.00000000E+00  0.00000000E+00  0.00000000E+00  0.00000000E+00  0.00000000E+00
  0.00000000E+00  0.00000000E+00  0.00000000E+00  0.00000000E+00  0.00000000E+00
  0.00000000E+00  0.00000000E+00
Coordinates of each shell                  R   N=         195
  2.06533084E+00  4.71978953E-06 -8.78996705E-01  2.06533084E+00  4.71978953E-06
 -8.78996705E-01  2.06533084E+00  4.71978953E-06 -8.78996705E-01  2.06533084E+00
  4.71978953E-06 -8.78996705E-01  2.06533084E+00  4.71978953E-06 -8.78996705E-01
  2.72617648E+00 -2.42535011E+00 -2.07346010E+00  2.72617648E+00 -2.42535011E+00
 -2.07346010E+00  2.72617648E+00 -2.42535011E+00 -2.07346010E+00  2.72617648E+00
 -2.42535011E+00 -2.07346010E+00  2.72617371E+00  2.42536634E+00 -2.07344766E+00
  2.72617371E+00  2.42536634E+00 -2.07344766E+00  2.72617371E+00  2.42536634E+00
 -2.07344766E+00  2.72617371E+00  2.42536634E+00 -2.07344766E+00  3.38689008E+00
 -2.81843280E-06  2.24770035E+00  3.38689008E+00 -2.81843280E-06  2.24770035E+00
  3.38689008E+00 -2.81843280E-06  2.24770035E+00  3.38689008E+00 -2.81843280E-06
  2.24770035E+00 -1.25223332E+00  1.17708043E-06 -3.08953944E-01 -1.25223332E+00
  1.17708043E-06 -3.08953944E-01 -1.25223332E+00  1.17708043E-06 -3.08953944E-01
 -1.25223332E+00  1.17708043E-06 -3.08953944E-01  6.26312051E+00 -1.21997471E-05
  2.09822111E+00  6.26312051E+00 -1.21997471E-05  2.09822111E+00  6.26312051E+00
 -1.21997471E-05  2.09822111E+00  6.26312051E+00 -1.21997471E-05  2.09822111E+00
 -2.51216290E+00  2.30650257E+00 -6.50460432E-02 -2.51216290E+00  2.30650257E+00
 -6.50460432E-02 -2.51216290E+00  2.30650257E+00 -6.50460432E-02 -2.51216290E+00
  2.30650257E+00 -6.50460432E-02 -2.51215988E+00 -2.30650303E+00 -6.50564149E-02
 -2.51215988E+00 -2.30650303E+00 -6.50564149E-02 -2.51215988E+00 -2.30650303E+00
 -6.50564149E-02 -2.51215988E+00 -2.30650303E+00 -6.50564149E-02 -5.10023180E+00
  2.29041472E+00  4.40148635E-01 -5.10023180E+00  2.29041472E+00  4.40148635E-01
 -5.10023180E+00  2.29041472E+00  4.40148635E-01 -5.10023180E+00  2.29041472E+00
  4.40148635E-01 -5.10022864E+00 -2.29042074E+00  4.40138644E-01 -5.10022864E+00
 -2.29042074E+00  4.40138644E-01 -5.10022864E+00 -2.29042074E+00  4.40138644E-01
 -5.10022864E+00 -2.29042074E+00  4.40138644E-01 -6.38795228E+00 -4.41684605E-06
  7.06477039E-01 -6.38795228E+00 -4.41684605E-06  7.06477039E-01 -6.38795228E+00
 -4.41684605E-06  7.06477039E-01 -6.38795228E+00 -4.41684605E-06  7.06477039E-01
  2.65419096E+00  1.68405388E+00  3.19743985E+00  2.65419096E+00  1.68405388E+00
  3.19743985E+00  2.65417980E+00 -1.68405577E+00  3.19743795E+00  2.65417980E+00
 -1.68405577E+00  3.19743795E+00  7.05356481E+00 -9.59330136E-06  4.00561154E+00
  7.05356481E+00 -9.59330136E-06  4.00561154E+00  6.93345987E+00 -1.67764216E+00
  1.10219286E+00  6.93345987E+00 -1.67764216E+00  1.10219286E+00  6.93346998E+00
  1.67760931E+00  1.10218515E+00  6.93346998E+00  1.67760931E+00  1.10218515E+00
 -1.48450373E+00  4.06451070E+00 -3.31940001E-01 -1.48450373E+00  4.06451070E+00
 -3.31940001E-01 -1.48449842E+00 -4.06450861E+00 -3.31958440E-01 -1.48449842E+00
 -4.06450861E+00 -3.31958440E-01 -6.11466158E+00  4.06768893E+00  6.19599661E-01
 -6.11466158E+00  4.06768893E+00  6.19599661E-01 -6.11465603E+00 -4.06769706E+00
  6.19582467E-01 -6.11465603E+00 -4.06769706E+00  6.19582467E-01 -8.40489130E+00
 -6.59118303E-06  1.09728207E+00 -8.40489130E+00 -6.59118303E-06  1.09728207E+00
Constraint Structure                       R   N=          63
  2.06533084E+00  4.71978953E-06 -8.78996705E-01  2.72617648E+00 -2.42535011E+00
 -2.07346010E+00  2.72617371E+00  2.42536634E+00 -2.07344766E+00  3.38689008E+00
 -2.81843280E-06  2.24770035E+00 -1.25223332E+00  1.17708043E-06 -3.08953944E-01
  6.26312051E+00 -1.21997471E-05  2.09822111E+00 -2.51216290E+00  2.30650257E+00
 -6.50460432E-02 -2.51215988E+00 -2.30650303E+00 -6.50564149E-02 -5.10023180E+00
  2.29041472E+00  4.40148635E-01 -5.10022864E+00 -2.29042074E+00  4.40138644E-01
 -6.38795228E+00 -4.41684605E-06  7.06477039E-01  2.65419096E+00  1.68405388E+00
  3.19743985E+00  2.65417980E+00 -1.68405577E+00  3.19743795E+00  7.05356481E+00
 -9.59330136E-06  4.00561154E+00  6.93345987E+00 -1.67764216E+00  1.10219286E+00
  6.93346998E+00  1.67760931E+00  1.10218515E+00 -1.48450373E+00  4.06451070E+00
 -3.31940001E-01 -1.48449842E+00 -4.06450861E+00 -3.31958440E-01 -6.11466158E+00
  4.06768893E+00  6.19599661E-01 -6.11465603E+00 -4.06769706E+00  6.19582467E-01
 -8.40489130E+00 -6.59118303E-06  1.09728207E+00
Num ILSW                                   I              100
ILSW                                       I   N=         100
           0           1           0           0           2           0
           0           0           0           0           0          -1
           0           0           0           0           0           0
           0           0           0           0           1           0
           1           0           0           0           0           0
           0           0      100000           0          -1           0
           0           0           0           0           0           0
           0           0           0           1           1           0
           0           0           1           0           0           0
           0           0           4          40           0           0
           0           0           0           0           0           0
           0           0           0           0           0           0
           0           0           0           0           0           0
           0           0           0           0           0           0
           0           0           0           0           0           0
           0           0           0           0           0           0
           0           0           0           0
Num RLSW                                   I               40
RLSW                                       R   N=          40
  1.00000000E+00  1.00000000E+00  1.00000000E+00  1.00000000E+00  1.00000000E+00
  0.00000000E+00  0.00000000E+00  1.00000000E+00  0.00000000E+00  0.00000000E+00
  0.00000000E+00  0.00000000E+00  1.00000000E+00  0.00000000E+00  0.00000000E+00
  0.00000000E+00  0.00000000E+00  1.00000000E+00  0.00000000E+00  0.00000000E+00
  0.00000000E+00  0.00000000E+00  1.00000000E+00  0.00000000E+00  0.00000000E+00
  0.00000000E+00  0.00000000E+00  1.00000000E+00  0.00000000E+00  0.00000000E+00
  0.00000000E+00  0.00000000E+00  0.00000000E+00  0.00000000E+00  0.00000000E+00
  0.00000000E+00  0.00000000E+00  0.00000000E+00  1.00000000E+00  1.00000000E+00
MxBond                                     I                4
NBond                                      I   N=          21
           4           1           1           4           3           4
           3           3           3           3           3           1
           1           1           1           1           1           1
           1           1           1
IBond                                      I   N=          84
           2           3           4           5           1           0
           0           0           1           0           0           0
           1           6          12          13           1           7
           8           0           4          14          15          16
           5           9          17           0           5          10
          18           0           7          11          19           0
           8          11          20           0           9          10
          21           0           4           0           0           0
           4           0           0           0           6           0
           0           0           6           0           0           0
           6           0           0           0           7           0
           0           0           8           0           0           0
           9           0           0           0          10           0
           0           0          11           0           0           0
RBond                                      R   N=          84
  2.00000000E+00  2.00000000E+00  1.00000000E+00  1.00000000E+00  2.00000000E+00
  0.00000000E+00  0.00000000E+00  0.00000000E+00  2.00000000E+00  0.00000000E+00
  0.00000000E+00  0.00000000E+00  1.00000000E+00  1.00000000E+00  1.00000000E+00
  1.00000000E+00  1.00000000E+00  1.50000000E+00  1.50000000E+00  0.00000000E+00
  1.00000000E+00  1.00000000E+00  1.00000000E+00  1.00000000E+00  1.50000000E+00
  1.50000000E+00  1.00000000E+00  0.00000000E+00  1.50000000E+00  1.50000000E+00
  1.00000000E+00  0.00000000E+00  1.50000000E+00  1.50000000E+00  1.00000000E+00
  0.00000000E+00  1.50000000E+00  1.50000000E+00  1.00000000E+00  0.00000000E+00
  1.50000000E+00  1.50000000E+00  1.00000000E+00  0.00000000E+00  1.00000000E+00
  0.00000000E+00  0.00000000E+00  0.00000000E+00  1.00000000E+00  0.00000000E+00
  0.00000000E+00  0.00000000E+00  1.00000000E+00  0.00000000E+00  0.00000000E+00
  0.00000000E+00  1.00000000E+00  0.00000000E+00  0.00000000E+00  0.00000000E+00
  1.00000000E+00  0.00000000E+00  0.00000000E+00  0.00000000E+00  1.00000000E+00
  0.00000000E+00  0.00000000E+00  0.00000000E+00  1.00000000E+00  0.00000000E+00
  0.00000000E+00  0.00000000E+00  1.00000000E+00  0.00000000E+00  0.00000000E+00
  0.00000000E+00  1.00000000E+00  0.00000000E+00  0.00000000E+00  0.00000000E+00
  1.00000000E+00  0.00000000E+00  0.00000000E+00  0.00000000E+00
Virial Ratio                               R      2.001830569280303E+00
SCF Energy                                 R     -8.559329589278061E+02
MP2 Energy                                 R     -8.574582695439211E+02
Total Energy                               R     -8.574582695439211E+02
Post-SCF wavefunction norm                 R      1.748690235180116E+00
RMS Force                                  R      7.221403081654340E-08
RMS Density                                R      1.023218671027504E-09
External E-field                           R   N=          35
  0.00000000E+00  0.00000000E+00  0.00000000E+00  0.00000000E+00  0.00000000E+00
  0.00000000E+00  0.00000000E+00  0.00000000E+00  0.00000000E+00  0.00000000E+00
  0.00000000E+00  0.00000000E+00  0.00000000E+00  0.00000000E+00  0.00000000E+00
  0.00000000E+00  0.00000000E+00  0.00000000E+00  0.00000000E+00  0.00000000E+00
  0.00000000E+00  0.00000000E+00  0.00000000E+00  0.00000000E+00  0.00000000E+00
  0.00000000E+00  0.00000000E+00  0.00000000E+00  0.00000000E+00  0.00000000E+00
  0.00000000E+00  0.00000000E+00  0.00000000E+00  0.00000000E+00  0.00000000E+00
IOpCl                                      I                0
IROHF                                      I                0
Alpha Orbital Energies                     R   N=         189
 -9.21816191E+01 -2.05467938E+01 -2.05467758E+01 -1.12798223E+01 -1.12775673E+01
 -1.12691819E+01 -1.12691066E+01 -1.12660770E+01 -1.12598190E+01 -1.12597061E+01
 -1.12385047E+01 -9.15772974E+00 -6.84326031E+00 -6.84283999E+00 -6.84250537E+00
 -1.43295740E+00 -1.32210825E+00 -1.17826304E+00 -1.08589340E+00 -1.04970737E+00
 -1.03923321E+00 -9.35510080E-01 -8.61080128E-01 -8.51422029E-01 -7.94535964E-01
 -7.33369426E-01 -6.85859247E-01 -6.66079449E-01 -6.54146216E-01 -6.46338842E-01
 -6.35037626E-01 -6.11795526E-01 -6.07262044E-01 -5.71836312E-01 -5.48927067E-01
 -5.40007824E-01 -5.25755450E-01 -5.21879354E-01 -5.18839340E-01 -4.83510419E-01
 -4.77233965E-01 -4.54912728E-01 -4.27017740E-01 -3.65052942E-01 -3.56838255E-01
  9.44923219E-02  1.18254016E-01  2.13600473E-01  2.20288612E-01  2.61720986E-01
  2.74198735E-01  2.76508875E-01  2.76620201E-01  2.82412551E-01  2.84556459E-01
  2.94949439E-01  3.11867171E-01  3.23453210E-01  3.30599632E-01  3.41023272E-01
  3.57284053E-01  3.61904143E-01  3.82652781E-01  4.40760488E-01  4.52805158E-01
  4.73599775E-01  4.76426231E-01  5.38219049E-01  5.86450195E-01  6.36965131E-01
  6.40659926E-01  6.75186529E-01  7.03383453E-01  7.17937099E-01  7.43410612E-01
  7.49489300E-01  7.64502406E-01  7.75461444E-01  7.90838042E-01  8.02873305E-01
  8.10112078E-01  8.17739286E-01  8.18968858E-01  8.37526145E-01  8.40856962E-01