
    -----------------------------------------------------------------------
          Psi4: An Open-Source Ab Initio Electronic Structure Package
                               Psi4 1.4a3.dev225 

                         Git: Rev {master} 7105e37 


    D. G. A. Smith, L. A. Burns, A. C. Simmonett, R. M. Parrish,
    M. C. Schieber, R. Galvelis, P. Kraus, H. Kruse, R. Di Remigio,
    A. Alenaizan, A. M. James, S. Lehtola, J. P. Misiewicz, M. Scheurer,
    R. A. Shaw, J. B. Schriber, Y. Xie, Z. L. Glick, D. A. Sirianni,
    J. S. O'Brien, J. M. Waldrop, A. Kumar, E. G. Hohenstein,
    B. P. Pritchard, B. R. Brooks, H. F. Schaefer III, A. Yu. Sokolov,
    K. Patkowski, A. E. DePrince III, U. Bozkaya, R. A. King,
    F. A. Evangelista, J. M. Turney, T. D. Crawford, C. D. Sherrill,
    J. Chem. Phys. 152(18) 184108 (2020). https://doi.org/10.1063/5.0006002

                            Additional Code Authors
    E. T. Seidl, C. L. Janssen, E. F. Valeev, M. L. Leininger,
    J. F. Gonthier, R. M. Richard, H. R. McAlexander, M. Saitow, X. Wang,
    P. Verma, and M. H. Lechner

             Previous Authors, Complete List of Code Contributors,
                       and Citations for Specific Modules
    https://github.com/psi4/psi4/blob/master/codemeta.json
    https://github.com/psi4/psi4/graphs/contributors
    http://psicode.org/psi4manual/master/introduction.html#citing-psifour

    -----------------------------------------------------------------------


    Psi4 started on: Sunday, 07 March 2021 03:43PM

    Process ID: 85406
    Host:       c419-013.stampede2.tacc.utexas.edu
    PSIDATADIR: /home1/07844/xy3866/miniconda3/envs/p4env/share/psi4
    Memory:     500.0 MiB
    Threads:    32
    
  ==> Input File <==

--------------------------------------------------------------------------
#psi4
#
memory 32 gb

molecule  {
0 1
 Cl        0.2076870     2.2487580     0.1866360
  O        2.2653220     0.2846580    -0.8778020
  C        0.1642190    -0.4887810    -0.0665560
  C       -0.5729690     0.7033250     0.0302020
  C       -0.5420740    -1.7002010    -0.1332520
  C        1.6632570    -0.5094160    -0.1597980
  C       -1.9684630     0.6780340     0.0679080
  C       -1.9349490    -1.7304420    -0.1201220
  C       -2.6487990    -0.5355840    -0.0206560
  C        2.3930500    -1.5536810     0.6569590
  H        0.0096830    -2.6331730    -0.2140200
  H       -2.5123770     1.6138940     0.1595600
  H       -2.4587670    -2.6802070    -0.1882350
  H       -3.7356500    -0.5434820    -0.0013820
  H        2.2357863    -2.5354078     0.1989090
  H        2.0546340    -1.5354670     1.6969810
  H        3.4631710    -1.3484660     0.6031360
units angstrom
no_reorient  #important for SAPT in psi4, default
symmetry c1  #important for SAPT in psi4, default
}

set PROPERTIES_ORIGIN ["COM"]
properties('MP2/aug-cc-pvtz', properties = ['dipole'])
--------------------------------------------------------------------------

  Memory set to  29.802 GiB by Python driver.
    SCF Algorithm Type (re)set to DF.

*** tstart() called on c419-013.stampede2.tacc.utexas.edu
*** at Sun Mar  7 15:43:15 2021

   => Loading Basis Set <=

    Name: AUG-CC-PVTZ
    Role: ORBITAL
    Keyword: BASIS
    atoms 1     entry CL         line   988 file /home1/07844/xy3866/miniconda3/envs/p4env/share/psi4/basis/aug-cc-pvtz.gbs 
    atoms 2     entry O          line   331 file /home1/07844/xy3866/miniconda3/envs/p4env/share/psi4/basis/aug-cc-pvtz.gbs 
    atoms 3-10  entry C          line   239 file /home1/07844/xy3866/miniconda3/envs/p4env/share/psi4/basis/aug-cc-pvtz.gbs 
    atoms 11-17 entry H          line    40 file /home1/07844/xy3866/miniconda3/envs/p4env/share/psi4/basis/aug-cc-pvtz.gbs 


         ---------------------------------------------------------
                                   SCF
               by Justin Turney, Rob Parrish, Andy Simmonett
                          and Daniel G. A. Smith
                              RHF Reference
                       32 Threads,  30517 MiB Core
         ---------------------------------------------------------

  ==> Geometry <==

    Molecular point group: c1
    Full point group: C1

    Geometry (in Angstrom), charge = 0, multiplicity = 1:

       Center              X                  Y                   Z               Mass       
    ------------   -----------------  -----------------  -----------------  -----------------
         CL           0.199995917541     2.172074382861     0.200823299589    34.968852682000
         O            2.257630917541     0.207974382861    -0.863614700411    15.994914619570
         C            0.156527917541    -0.565464617139    -0.052368700411    12.000000000000
         C           -0.580660082459     0.626641382861     0.044389299589    12.000000000000
         C           -0.549765082459    -1.776884617139    -0.119064700411    12.000000000000
         C            1.655565917541    -0.586099617139    -0.145610700411    12.000000000000
         C           -1.976154082459     0.601350382861     0.082095299589    12.000000000000
         C           -1.942640082459    -1.807125617139    -0.105934700411    12.000000000000
         C           -2.656490082459    -0.612267617139    -0.006468700411    12.000000000000
         C            2.385358917541    -1.630364617139     0.671146299589    12.000000000000
         H            0.001991917541    -2.709856617139    -0.199832700411     1.007825032230
         H           -2.520068082459     1.537210382861     0.173747299589     1.007825032230
         H           -2.466458082459    -2.756890617139    -0.174047700411     1.007825032230
         H           -3.743341082459    -0.620165617139     0.012805299589     1.007825032230
         H            2.228095217541    -2.612091417139     0.213096299589     1.007825032230
         H            2.046942917541    -1.612150617139     1.711168299589     1.007825032230
         H            3.455479917541    -1.425149617139     0.617323299589     1.007825032230

  Running in c1 symmetry.

  Rotational constants: A =      0.04852  B =      0.03826  C =      0.02270 [cm^-1]
  Rotational constants: A =   1454.55234  B =   1147.04773  C =    680.66777 [MHz]
  Nuclear repulsion =  563.645263735857611

  Charge       = 0
  Multiplicity = 1
  Electrons    = 80
  Nalpha       = 40
  Nbeta        = 40

  ==> Algorithm <==

  SCF Algorithm Type is DF.
  DIIS enabled.
  MOM disabled.
  Fractional occupation disabled.
  Guess Type is SAD.
  Energy threshold   = 1.00e-10
  Density threshold  = 1.00e-10
  Integral threshold = 1.00e-12

  ==> Primary Basis <==

  Basis Set: AUG-CC-PVTZ
    Blend: AUG-CC-PVTZ
    Number of shells: 205
    Number of basis functions: 625
    Number of Cartesian functions: 729
    Spherical Harmonics?: true
    Max angular momentum: 3

   => Loading Basis Set <=

    Name: (AUG-CC-PVTZ AUX)
    Role: JKFIT
    Keyword: DF_BASIS_SCF
    atoms 1     entry CL         line   816 file /home1/07844/xy3866/miniconda3/envs/p4env/share/psi4/basis/aug-cc-pvtz-jkfit.gbs 
    atoms 2     entry O          line   286 file /home1/07844/xy3866/miniconda3/envs/p4env/share/psi4/basis/aug-cc-pvtz-jkfit.gbs 
    atoms 3-10  entry C          line   162 file /home1/07844/xy3866/miniconda3/envs/p4env/share/psi4/basis/aug-cc-pvtz-jkfit.gbs 
    atoms 11-17 entry H          line    70 file /home1/07844/xy3866/miniconda3/envs/p4env/share/psi4/basis/aug-cc-pvtz-jkfit.gbs 

  ==> Integral Setup <==

  DFHelper Memory: AOs need 3.965 GiB; user supplied 22.352 GiB. Using in-core AOs.

  ==> MemDFJK: Density-Fitted J/K Matrices <==

    J tasked:                   Yes
    K tasked:                   Yes
    wK tasked:                   No
    OpenMP threads:              32
    Memory [MiB]:             22888
    Algorithm:                 Core
    Schwarz Cutoff:           1E-12
    Mask sparsity (%):       7.5315
    Fitting Condition:        1E-10

   => Auxiliary Basis Set <=

  Basis Set: (AUG-CC-PVTZ AUX)
    Blend: AUG-CC-PVTZ-JKFIT
    Number of shells: 410
    Number of basis functions: 1404
    Number of Cartesian functions: 1744
    Spherical Harmonics?: true
    Max angular momentum: 4

  Minimum eigenvalue in the overlap matrix is 7.5612228907E-07.
  Reciprocal condition number of the overlap matrix is 4.1415374955E-08.
    Using symmetric orthogonalization.

  ==> Pre-Iterations <==

  SCF Guess: Superposition of Atomic Densities via on-the-fly atomic UHF (no occupation information).

   -------------------------
    Irrep   Nso     Nmo    
   -------------------------
     A        625     625 
   -------------------------
    Total     625     625
   -------------------------

  ==> Iterations <==

                           Total Energy        Delta E     RMS |[F,P]|

   @DF-RHF iter SAD:  -840.84085228487481   -8.40841e+02   0.00000e+00 
   @DF-RHF iter   1:  -841.24560337083551   -4.04751e-01   1.12402e-03 DIIS
   @DF-RHF iter   2:  -841.45867890027489   -2.13076e-01   6.34895e-04 DIIS
   @DF-RHF iter   3:  -841.52097407900931   -6.22952e-02   1.33765e-04 DIIS
   @DF-RHF iter   4:  -841.52536227111409   -4.38819e-03   6.52519e-05 DIIS
   @DF-RHF iter   5:  -841.52633324973272   -9.70979e-04   1.37398e-05 DIIS
   @DF-RHF iter   6:  -841.52642175887195   -8.85091e-05   6.59860e-06 DIIS
   @DF-RHF iter   7:  -841.52644509883453   -2.33400e-05   2.78408e-06 DIIS
   @DF-RHF iter   8:  -841.52645061405917   -5.51522e-06   1.19627e-06 DIIS
   @DF-RHF iter   9:  -841.52645169197888   -1.07792e-06   5.09152e-07 DIIS
   @DF-RHF iter  10:  -841.52645190058536   -2.08606e-07   1.93860e-07 DIIS
   @DF-RHF iter  11:  -841.52645193674516   -3.61598e-08   9.12277e-08 DIIS
   @DF-RHF iter  12:  -841.52645194306490   -6.31974e-09   4.14450e-08 DIIS
   @DF-RHF iter  13:  -841.52645194440584   -1.34094e-09   1.82955e-08 DIIS
   @DF-RHF iter  14:  -841.52645194459922   -1.93381e-10   6.47217e-09 DIIS
   @DF-RHF iter  15:  -841.52645194463037   -3.11502e-11   2.30434e-09 DIIS
   @DF-RHF iter  16:  -841.52645194463298   -2.61480e-12   8.74692e-10 DIIS
   @DF-RHF iter  17:  -841.52645194463275    2.27374e-13   3.25774e-10 DIIS
   @DF-RHF iter  18:  -841.52645194463310   -3.41061e-13   1.54445e-10 DIIS
   @DF-RHF iter  19:  -841.52645194463321   -1.13687e-13   8.78040e-11 DIIS
  Energy and wave function converged.


  ==> Post-Iterations <==

    Orbital Energies [Eh]
    ---------------------

    Doubly Occupied:                                                      

       1A   -104.841190     2A    -20.552816     3A    -11.345691  
       4A    -11.320377     5A    -11.270440     6A    -11.267306  
       7A    -11.263884     8A    -11.260034     9A    -11.257927  
      10A    -11.243077    11A    -10.564966    12A     -8.031862  
      13A     -8.029903    14A     -8.029847    15A     -1.383736  
      16A     -1.199413    17A     -1.126704    18A     -1.066445  
      19A     -1.013240    20A     -0.999953    21A     -0.876157  
      22A     -0.837854    23A     -0.771462    24A     -0.703348  
      25A     -0.668921    26A     -0.662920    27A     -0.633320  
      28A     -0.622599    29A     -0.606596    30A     -0.595496  
      31A     -0.561242    32A     -0.552345    33A     -0.535873  
      34A     -0.524558    35A     -0.498235    36A     -0.473533  
      37A     -0.457600    38A     -0.419120    39A     -0.361804  
      40A     -0.344338  

    Virtual:                                                              

      41A      0.022777    42A      0.029068    43A      0.035349  
      44A      0.043621    45A      0.046075    46A      0.054845  
      47A      0.065870    48A      0.069665    49A      0.079357  
      50A      0.084199    51A      0.087119    52A      0.089759  
      53A      0.098269    54A      0.105794    55A      0.108967  
      56A      0.112841    57A      0.115532    58A      0.120444  
      59A      0.126881    60A      0.129554    61A      0.131355  
      62A      0.133312    63A      0.137601    64A      0.140147  
      65A      0.144349    66A      0.145273    67A      0.155696  
      68A      0.161295    69A      0.165089    70A      0.165498  
      71A      0.170997    72A      0.180540    73A      0.184863  
      74A      0.192177    75A      0.195713    76A      0.197595  
      77A      0.204039    78A      0.208726    79A      0.219774  
      80A      0.226631    81A      0.229477    82A      0.242540  
      83A      0.248508    84A      0.252030    85A      0.256164  
      86A      0.263922    87A      0.270254    88A      0.276851  
      89A      0.284517    90A      0.289181    91A      0.293118  
      92A      0.294460    93A      0.299999    94A      0.306265  
      95A      0.307166    96A      0.314340    97A      0.317240  
      98A      0.318378    99A      0.326452   100A      0.331256  
     101A      0.337672   102A      0.341906   103A      0.351050  
     104A      0.353183   105A      0.359989   106A      0.362381  
     107A      0.373208   108A      0.384343   109A      0.389632  
     110A      0.392664   111A      0.399416   112A      0.402332  
     113A      0.411617   114A      0.412548   115A      0.419071  
     116A      0.422291   117A      0.423567   118A      0.431896  
     119A      0.435959   120A      0.444572   121A      0.447463  
     122A      0.453815   123A      0.461224   124A      0.463042  
     125A      0.465190   126A      0.467500   127A      0.473144  
     128A      0.483028   129A      0.486247   130A      0.491918  
     131A      0.496118   132A      0.497482   133A      0.499343  
     134A      0.504409   135A      0.506760   136A      0.512899  
     137A      0.517730   138A      0.520661   139A      0.526327  
     140A      0.530409   141A      0.535012   142A      0.544200  
     143A      0.549238   144A      0.552843   145A      0.562055  
     146A      0.570766   147A      0.576964   148A      0.583174  
     149A      0.587519   150A      0.596174   151A      0.607119  
     152A      0.614468   153A      0.623446   154A      0.628748  
     155A      0.630698   156A      0.642279   157A      0.648411  
     158A      0.654820   159A      0.668326   160A      0.669662  
     161A      0.676028   162A      0.682801   163A      0.687678  
     164A      0.698555   165A      0.704832   166A      0.712607  
     167A      0.718653   168A      0.724436   169A      0.740720  
     170A      0.743065   171A      0.760894   172A      0.766465  
     173A      0.773697   174A      0.775184   175A      0.783396  
     176A      0.796704   177A      0.812232   178A      0.814871  
     179A      0.816216   180A      0.825456   181A      0.836788  
     182A      0.839538   183A      0.847304   184A      0.851769  
     185A      0.857788   186A      0.861363   187A      0.868821  
     188A      0.870164   189A      0.877206   190A      0.883161  
     191A      0.888096   192A      0.892972   193A      0.895510  
     194A      0.901733   195A      0.905365   196A      0.914607  
     197A      0.920109   198A      0.924051   199A      0.931302  
     200A      0.934182   201A      0.943965   202A      0.951074  
     203A      0.956121   204A      0.957077   205A      0.966046  
     206A      0.970493   207A      0.980699   208A      0.986778  
     209A      0.993796   210A      0.999890   211A      1.004124  
     212A      1.009140   213A      1.020132   214A      1.030051  
     215A      1.032359   216A      1.039055   217A      1.041923  
     218A      1.050392   219A      1.060801   220A      1.061282  
     221A      1.064114   222A      1.072266   223A      1.075500  
     224A      1.084228   225A      1.085567   226A      1.092755  
     227A      1.096447   228A      1.102181   229A      1.109177  
     230A      1.115141   231A      1.121387   232A      1.123527  
     233A      1.129354   234A      1.137498   235A      1.144057  
     236A      1.154614   237A      1.157598   238A      1.163217  
     239A      1.168946   240A      1.180863   241A      1.185673  
     242A      1.191375   243A      1.205619   244A      1.207780  
     245A      1.212571   246A      1.213234   247A      1.225990  
     248A      1.231233   249A      1.237344   250A      1.242337  
     251A      1.249522   252A      1.254345   253A      1.261057  
     254A      1.265755   255A      1.288069   256A      1.291564  
     257A      1.299408   258A      1.305560   259A      1.319970  
     260A      1.327479   261A      1.339010   262A      1.349737  
     263A      1.359480   264A      1.365106   265A      1.372960  
     266A      1.376891   267A      1.393406   268A      1.401927  
     269A      1.411423   270A      1.416633   271A      1.424025  
     272A      1.436548   273A      1.447579   274A      1.456637  
     275A      1.462087   276A      1.479942   277A      1.483916  
     278A      1.491143   279A      1.504040   280A      1.516891  
     281A      1.531204   282A      1.534115   283A      1.545705  
     284A      1.551794   285A      1.562530   286A      1.571262  
     287A      1.583362   288A      1.593780   289A      1.603990  
     290A      1.613254   291A      1.619795   292A      1.632153  
     293A      1.645789   294A      1.655432   295A      1.656646  
     296A      1.668009   297A      1.674160   298A      1.680193  
     299A      1.696554   300A      1.708825   301A      1.716815  
     302A      1.723819   303A      1.731747   304A      1.749688  
     305A      1.754317   306A      1.763841   307A      1.773330  
     308A      1.779533   309A      1.782189   310A      1.787908  
     311A      1.799687   312A      1.813423   313A      1.833867  
     314A      1.842213   315A      1.845424   316A      1.850766  
     317A      1.854700   318A      1.871952   319A      1.882894  
     320A      1.887281   321A      1.898470   322A      1.915858  
     323A      1.921920   324A      1.928559   325A      1.942663  
     326A      1.947394   327A      1.958397   328A      1.963182  
     329A      1.972889   330A      1.984559   331A      1.996509  
     332A      2.001600   333A      2.007956   334A      2.017290  
     335A      2.028644   336A      2.033805   337A      2.040280  
     338A      2.057505   339A      2.067355   340A      2.082219  
     341A      2.088135   342A      2.100875   343A      2.110792  
     344A      2.121829   345A      2.127571   346A      2.138874  
     347A      2.148292   348A      2.184037   349A      2.194024  
     350A      2.200918   351A      2.205384   352A      2.210762  
     353A      2.227785   354A      2.248328   355A      2.264956  
     356A      2.274786   357A      2.280641   358A      2.289948  
     359A      2.301396   360A      2.313791   361A      2.327236  
     362A      2.336710   363A      2.349013   364A      2.360271  
     365A      2.388737   366A      2.404827   367A      2.424642  
     368A      2.443749   369A      2.457373   370A      2.469741  
     371A      2.481392   372A      2.500357   373A      2.519853  
     374A      2.537283   375A      2.543656   376A      2.549512  
     377A      2.576712   378A      2.588341   379A      2.606440  
     380A      2.619764   381A      2.661756   382A      2.673736  
     383A      2.674465   384A      2.696660   385A      2.709696  
     386A      2.739564   387A      2.748425   388A      2.758568  
     389A      2.763453   390A      2.784763   391A      2.803445  
     392A      2.818550   393A      2.835641   394A      2.876042  
     395A      2.883153   396A      2.898971   397A      2.930451  
     398A      2.951958   399A      3.003904   400A      3.016776  
     401A      3.038638   402A      3.051813   403A      3.082658  
     404A      3.098961   405A      3.130420   406A      3.148694  
     407A      3.165351   408A      3.175557   409A      3.186336  
     410A      3.200709   411A      3.221292   412A      3.222611  
     413A      3.255079   414A      3.265641   415A      3.276666  
     416A      3.285996   417A      3.288879   418A      3.309498  
     419A      3.320947   420A      3.328091   421A      3.334180  
     422A      3.353853   423A      3.377304   424A      3.385119  
     425A      3.397298   426A      3.403833   427A      3.416105  
     428A      3.426263   429A      3.426449   430A      3.435296  
     431A      3.456063   432A      3.462969   433A      3.475192  
     434A      3.498875   435A      3.508523   436A      3.515553  
     437A      3.531286   438A      3.539562   439A      3.550070  
     440A      3.567875   441A      3.575411   442A      3.583276  
     443A      3.589115   444A      3.604765   445A      3.614409  
     446A      3.621318   447A      3.635056   448A      3.655258  
     449A      3.659736   450A      3.679146   451A      3.682458  
     452A      3.691226   453A      3.717532   454A      3.733110  
     455A      3.737539   456A      3.769409   457A      3.773184  
     458A      3.786170   459A      3.804805   460A      3.817251  
     461A      3.825624   462A      3.843129   463A      3.850929  
     464A      3.853188   465A      3.866406   466A      3.872900  
     467A      3.882779   468A      3.891994   469A      3.912092  
     470A      3.919735   471A      3.936617   472A      3.948670  
     473A      3.968909   474A      3.973473   475A      3.981094  
     476A      3.987630   477A      4.005481   478A      4.010626  
     479A      4.010806   480A      4.040511   481A      4.051859  
     482A      4.059714   483A      4.068247   484A      4.089176  
     485A      4.094329   486A      4.110915   487A      4.122980  
     488A      4.128516   489A      4.139200   490A      4.156478  
     491A      4.159573   492A      4.181574   493A      4.184935  
     494A      4.193867   495A      4.203536   496A      4.220698  
     497A      4.237123   498A      4.257106   499A      4.273361  
     500A      4.276496   501A      4.292118   502A      4.326019  
     503A      4.333192   504A      4.339113   505A      4.348052  
     506A      4.363928   507A      4.367844   508A      4.381763  
     509A      4.388663   510A      4.399448   511A      4.415303  
     512A      4.423660   513A      4.440302   514A      4.454334  
     515A      4.460748   516A      4.496946   517A      4.500936  
     518A      4.507968   519A      4.537893   520A      4.540704  
     521A      4.569361   522A      4.580711   523A      4.619499  
     524A      4.625806   525A      4.652670   526A      4.664107  
     527A      4.681248   528A      4.714313   529A      4.719990  
     530A      4.735190   531A      4.739067   532A      4.751500  
     533A      4.783282   534A      4.791491   535A      4.809555  
     536A      4.839506   537A      4.855053   538A      4.882716  
     539A      4.890353   540A      4.910758   541A      4.920349  
     542A      4.944621   543A      4.952999   544A      4.963068  
     545A      4.988834   546A      4.999877   547A      5.023650  
     548A      5.057528   549A      5.068231   550A      5.085147  
     551A      5.094815   552A      5.108143   553A      5.136548  
     554A      5.139189   555A      5.145170   556A      5.176767  
     557A      5.189158   558A      5.208127   559A      5.225572  
     560A      5.243393   561A      5.259370   562A      5.303074  
     563A      5.307491   564A      5.330927   565A      5.356994  
     566A      5.362132   567A      5.372190   568A      5.409756  
     569A      5.426044   570A      5.445366   571A      5.480277  
     572A      5.501196   573A      5.568358   574A      5.602331  
     575A      5.638803   576A      5.659616   577A      5.681670  
     578A      5.705903   579A      5.714120   580A      5.770071  
     581A      5.825808   582A      5.873731   583A      5.995515  
     584A      6.010944   585A      6.058508   586A      6.072086  
     587A      6.128545   588A      6.154449   589A      6.159308  
     590A      6.189866   591A      6.199145   592A      6.240792  
     593A      6.319887   594A      6.373062   595A      6.419274  
     596A      6.480347   597A      6.605792   598A      6.705342  
     599A      6.741849   600A      6.767038   601A      6.783755  
     602A      6.834469   603A      6.940350   604A      7.041946  
     605A      7.067163   606A      7.099322   607A      7.181181  
     608A      7.253623   609A      7.397419   610A      7.479268  
     611A      7.511856   612A      7.651886   613A      7.747631  
     614A      7.888907   615A      7.964725   616A      8.591613  
     617A     15.330969   618A     15.945676   619A     16.230685  
     620A     17.216623   621A     18.356620   622A     18.904806  
     623A     19.654031   624A     19.766600   625A     20.602437  

    Final Occupation by Irrep:
              A 
    DOCC [    40 ]

  @DF-RHF Final Energy:  -841.52645194463321

   => Energetics <=

    Nuclear Repulsion Energy =            563.6452637358576112
    One-Electron Energy =               -2272.7911664908988314
    Two-Electron Energy =                 867.6194508104081251
    Total Energy =                       -841.5264519446332088

Computation Completed

*** tstop() called on c419-013.stampede2.tacc.utexas.edu at Sun Mar  7 15:43:52 2021
Module time:
	user time   =     646.48 seconds =      10.77 minutes
	system time =      48.79 seconds =       0.81 minutes
	total time  =         37 seconds =       0.62 minutes
Total time:
	user time   =     646.48 seconds =      10.77 minutes
	system time =      48.79 seconds =       0.81 minutes
	total time  =         37 seconds =       0.62 minutes
   => Loading Basis Set <=

    Name: (AUG-CC-PVTZ AUX)
    Role: RIFIT
    Keyword: DF_BASIS_MP2
    atoms 1     entry CL         line   742 file /home1/07844/xy3866/miniconda3/envs/p4env/share/psi4/basis/aug-cc-pvtz-ri.gbs 
    atoms 2     entry O          line   264 file /home1/07844/xy3866/miniconda3/envs/p4env/share/psi4/basis/aug-cc-pvtz-ri.gbs 
    atoms 3-10  entry C          line   148 file /home1/07844/xy3866/miniconda3/envs/p4env/share/psi4/basis/aug-cc-pvtz-ri.gbs 
    atoms 11-17 entry H          line    30 file /home1/07844/xy3866/miniconda3/envs/p4env/share/psi4/basis/aug-cc-pvtz-ri.gbs 


*** tstart() called on c419-013.stampede2.tacc.utexas.edu
*** at Sun Mar  7 15:43:53 2021


  //>>>>>>>>>>>>>>>>>>>>>>>>>>>>>>>>>>>//
  //               DFMP2               //
  //<<<<<<<<<<<<<<<<<<<<<<<<<<<<<<<<<<<//

	 --------------------------------------------------------
	                          DF-MP2                         
	      2nd-Order Density-Fitted Moller-Plesset Theory     
	              RMP2 Wavefunction,  32 Threads             
	                                                         
	        Rob Parrish, Justin Turney, Andy Simmonett,      
	           Ed Hohenstein, and C. David Sherrill          
	 --------------------------------------------------------

   => Auxiliary Basis Set <=

  Basis Set: (AUG-CC-PVTZ AUX)
    Blend: AUG-CC-PVTZ-RI
    Number of shells: 387
    Number of basis functions: 1423
    Number of Cartesian functions: 1800
    Spherical Harmonics?: true
    Max angular momentum: 4

	 --------------------------------------------------------
	                 NBF =   625, NAUX =  1423
	 --------------------------------------------------------
	   CLASS    FOCC     OCC    AOCC    AVIR     VIR    FVIR
	   PAIRS       0      40      40     585     585       0
	 --------------------------------------------------------

  DFHelper Memory: AOs need 4.090 GiB; user supplied 22.352 GiB. Using in-core AOs.


         ------------------------------------------------------------
                                     CPHF                           
                                  Rob Parrish                       
         ------------------------------------------------------------

  ==> Geometry <==

    Molecular point group: c1
    Full point group: C1

    Geometry (in Angstrom), charge = 0, multiplicity = 1:

       Center              X                  Y                   Z               Mass       
    ------------   -----------------  -----------------  -----------------  -----------------
         CL           0.199995917541     2.172074382861     0.200823299589    34.968852682000
         O            2.257630917541     0.207974382861    -0.863614700411    15.994914619570
         C            0.156527917541    -0.565464617139    -0.052368700411    12.000000000000
         C           -0.580660082459     0.626641382861     0.044389299589    12.000000000000
         C           -0.549765082459    -1.776884617139    -0.119064700411    12.000000000000
         C            1.655565917541    -0.586099617139    -0.145610700411    12.000000000000
         C           -1.976154082459     0.601350382861     0.082095299589    12.000000000000
         C           -1.942640082459    -1.807125617139    -0.105934700411    12.000000000000
         C           -2.656490082459    -0.612267617139    -0.006468700411    12.000000000000
         C            2.385358917541    -1.630364617139     0.671146299589    12.000000000000
         H            0.001991917541    -2.709856617139    -0.199832700411     1.007825032230
         H           -2.520068082459     1.537210382861     0.173747299589     1.007825032230
         H           -2.466458082459    -2.756890617139    -0.174047700411     1.007825032230
         H           -3.743341082459    -0.620165617139     0.012805299589     1.007825032230
         H            2.228095217541    -2.612091417139     0.213096299589     1.007825032230
         H            2.046942917541    -1.612150617139     1.711168299589     1.007825032230
         H            3.455479917541    -1.425149617139     0.617323299589     1.007825032230

  Nuclear repulsion =  563.645263735857611
  Reference energy  = -841.526451944633209

  ==> Basis Set <==

  Basis Set: AUG-CC-PVTZ
    Blend: AUG-CC-PVTZ
    Number of shells: 205
    Number of basis functions: 625
    Number of Cartesian functions: 729
    Spherical Harmonics?: true
    Max angular momentum: 3

  ==> CGRSolver (by Rob Parrish) <==

   Number of roots    =         1
   Preconditioning    =    JACOBI
   Convergence cutoff =     1E-06
   Maximum iterations =       100

  ==> CPHFRHamiltonian (by Rob Parrish) <== 

  ==> MemDFJK: Density-Fitted J/K Matrices <==

    J tasked:                   Yes
    K tasked:                   Yes
    wK tasked:                   No
    OpenMP threads:              32
    Memory [MiB]:             22888
    Algorithm:                 Core
    Schwarz Cutoff:           1E-12
    Mask sparsity (%):       4.4764
    Fitting Condition:        1E-10

   => Auxiliary Basis Set <=

  Basis Set: (AUG-CC-PVTZ AUX)
    Blend: AUG-CC-PVTZ-JKFIT
    Number of shells: 410
    Number of basis functions: 1404
    Number of Cartesian functions: 1744
    Spherical Harmonics?: true
    Max angular momentum: 4

  ==> CPHF Iterations <==

  => Iterations <=

             Iter  Converged  Remaining    Residual
  CGR           1          0          1   1.091E-01
  CGR           2          0          1   3.116E-02
  CGR           3          0          1   1.102E-02
  CGR           4          0          1   5.165E-03
  CGR           5          0          1   2.408E-03
  CGR           6          0          1   1.120E-03
  CGR           7          0          1   4.277E-04
  CGR           8          0          1   1.762E-04
  CGR           9          0          1   6.765E-05
  CGR          10          0          1   2.839E-05
  CGR          11          0          1   1.218E-05
  CGR          12          0          1   4.065E-06
  CGR          13          0          1   1.704E-06
  CGR          14          1          0   7.421E-07

    CGRSolver converged.

	-----------------------------------------------------------
	 ==================> DF-MP2 Energies <==================== 
	-----------------------------------------------------------
	 Reference Energy          =    -841.5264519446332088 [Eh]
	 Singles Energy            =      -0.0000000000000000 [Eh]
	 Same-Spin Energy          =      -0.4742313424007450 [Eh]
	 Opposite-Spin Energy      =      -1.4491631066900035 [Eh]
	 Correlation Energy        =      -1.9233944490907484 [Eh]
	 Total Energy              =    -843.4498463937239876 [Eh]
	-----------------------------------------------------------
	 ================> DF-SCS-MP2 Energies <================== 
	-----------------------------------------------------------
	 SCS Same-Spin Scale       =       0.3333333333333333 [-]
	 SCS Opposite-Spin Scale   =       1.2000000000000000 [-]
	 SCS Same-Spin Energy      =      -0.1580771141335817 [Eh]
	 SCS Opposite-Spin Energy  =      -1.7389957280280042 [Eh]
	 SCS Correlation Energy    =      -1.8970728421615859 [Eh]
	 SCS Total Energy          =    -843.4235247867948146 [Eh]
	-----------------------------------------------------------



Properties will be evaluated at   0.000000,   0.000000,   0.000000 [a0]

Properties computed using the MP2 density matrix

  Nuclear Dipole Moment: [e a0]
     X:    -1.1072      Y:   -11.5487      Z:     2.0191

  Electronic Dipole Moment: [e a0]
     X:     0.2462      Y:    10.3754      Z:    -1.4654

  Dipole Moment: [e a0]
     X:    -0.8610      Y:    -1.1734      Z:     0.5537     Total:     1.5572

  Dipole Moment: [D]
     X:    -2.1885      Y:    -2.9824      Z:     1.4073     Total:     3.9579


*** tstop() called on c419-013.stampede2.tacc.utexas.edu at Sun Mar  7 15:48:09 2021
Module time:
	user time   =    1841.65 seconds =      30.69 minutes
	system time =      67.98 seconds =       1.13 minutes
	total time  =        256 seconds =       4.27 minutes
Total time:
	user time   =    2488.99 seconds =      41.48 minutes
	system time =     116.78 seconds =       1.95 minutes
	total time  =        294 seconds =       4.90 minutes

    Psi4 stopped on: Sunday, 07 March 2021 03:48PM
    Psi4 wall time for execution: 0:04:54.92

*** Psi4 exiting successfully. Buy a developer a beer!
