
    -----------------------------------------------------------------------
          Psi4: An Open-Source Ab Initio Electronic Structure Package
                               Psi4 1.4a3.dev225 

                         Git: Rev {master} 7105e37 


    D. G. A. Smith, L. A. Burns, A. C. Simmonett, R. M. Parrish,
    M. C. Schieber, R. Galvelis, P. Kraus, H. Kruse, R. Di Remigio,
    A. Alenaizan, A. M. James, S. Lehtola, J. P. Misiewicz, M. Scheurer,
    R. A. Shaw, J. B. Schriber, Y. Xie, Z. L. Glick, D. A. Sirianni,
    J. S. O'Brien, J. M. Waldrop, A. Kumar, E. G. Hohenstein,
    B. P. Pritchard, B. R. Brooks, H. F. Schaefer III, A. Yu. Sokolov,
    K. Patkowski, A. E. DePrince III, U. Bozkaya, R. A. King,
    F. A. Evangelista, J. M. Turney, T. D. Crawford, C. D. Sherrill,
    J. Chem. Phys. 152(18) 184108 (2020). https://doi.org/10.1063/5.0006002

                            Additional Code Authors
    E. T. Seidl, C. L. Janssen, E. F. Valeev, M. L. Leininger,
    J. F. Gonthier, R. M. Richard, H. R. McAlexander, M. Saitow, X. Wang,
    P. Verma, and M. H. Lechner

             Previous Authors, Complete List of Code Contributors,
                       and Citations for Specific Modules
    https://github.com/psi4/psi4/blob/master/codemeta.json
    https://github.com/psi4/psi4/graphs/contributors
    http://psicode.org/psi4manual/master/introduction.html#citing-psifour

    -----------------------------------------------------------------------


    Psi4 started on: Saturday, 27 February 2021 04:35PM

    Process ID: 104173
    Host:       c402-023.stampede2.tacc.utexas.edu
    PSIDATADIR: /home1/07844/xy3866/miniconda3/envs/p4env/share/psi4
    Memory:     500.0 MiB
    Threads:    32
    
  ==> Input File <==

--------------------------------------------------------------------------
#psi4
#
memory 32 gb

molecule  {
0 1
 Cl        0.2076870     2.2487580     0.1866360
  O        2.2653220     0.2846580    -0.8778020
  C        0.1642190    -0.4887810    -0.0665560
  C       -0.5729690     0.7033250     0.0302020
  C       -0.5420740    -1.7002010    -0.1332520
  C        1.6632570    -0.5094160    -0.1597980
  C       -1.9684630     0.6780340     0.0679080
  C       -1.9349490    -1.7304420    -0.1201220
  C       -2.7306918    -0.5882093    -0.0238995
  C        2.3930500    -1.5536810     0.6569590
  H        0.0096830    -2.6331730    -0.2140200
  H       -2.5123770     1.6138940     0.1595600
  H       -2.4587670    -2.6802070    -0.1882350
  H       -3.7356500    -0.5434820    -0.0013820
  H        2.2064120    -2.5587800     0.2654600
  H        2.0546340    -1.5354670     1.6969810
  H        3.4631710    -1.3484660     0.6031360
units angstrom
no_reorient  #important for SAPT in psi4, default
symmetry c1  #important for SAPT in psi4, default
}

set PROPERTIES_ORIGIN ["COM"]
properties('MP2/aug-cc-pvtz', properties = ['dipole'])
--------------------------------------------------------------------------

  Memory set to  29.802 GiB by Python driver.
    SCF Algorithm Type (re)set to DF.

*** tstart() called on c402-023.stampede2.tacc.utexas.edu
*** at Sat Feb 27 16:35:21 2021

   => Loading Basis Set <=

    Name: AUG-CC-PVTZ
    Role: ORBITAL
    Keyword: BASIS
    atoms 1     entry CL         line   988 file /home1/07844/xy3866/miniconda3/envs/p4env/share/psi4/basis/aug-cc-pvtz.gbs 
    atoms 2     entry O          line   331 file /home1/07844/xy3866/miniconda3/envs/p4env/share/psi4/basis/aug-cc-pvtz.gbs 
    atoms 3-10  entry C          line   239 file /home1/07844/xy3866/miniconda3/envs/p4env/share/psi4/basis/aug-cc-pvtz.gbs 
    atoms 11-17 entry H          line    40 file /home1/07844/xy3866/miniconda3/envs/p4env/share/psi4/basis/aug-cc-pvtz.gbs 


         ---------------------------------------------------------
                                   SCF
               by Justin Turney, Rob Parrish, Andy Simmonett
                          and Daniel G. A. Smith
                              RHF Reference
                       32 Threads,  30517 MiB Core
         ---------------------------------------------------------

  ==> Geometry <==

    Molecular point group: c1
    Full point group: C1

    Geometry (in Angstrom), charge = 0, multiplicity = 1:

       Center              X                  Y                   Z               Mass       
    ------------   -----------------  -----------------  -----------------  -----------------
         CL           0.206568618063     2.176327498606     0.200640530922    34.968852682000
         O            2.264203618063     0.212227498606    -0.863797469078    15.994914619570
         C            0.163100618063    -0.561211501394    -0.052551469078    12.000000000000
         C           -0.574087381937     0.630894498606     0.044206530922    12.000000000000
         C           -0.543192381937    -1.772631501394    -0.119247469078    12.000000000000
         C            1.662138618063    -0.581846501394    -0.145793469078    12.000000000000
         C           -1.969581381937     0.605603498606     0.081912530922    12.000000000000
         C           -1.936067381937    -1.802872501394    -0.106117469078    12.000000000000
         C           -2.731810181937    -0.660639801394    -0.009894969078    12.000000000000
         C            2.391931618063    -1.626111501394     0.670963530922    12.000000000000
         H            0.008564618063    -2.705603501394    -0.200015469078     1.007825032230
         H           -2.513495381937     1.541463498606     0.173564530922     1.007825032230
         H           -2.459885381937    -2.752637501394    -0.174230469078     1.007825032230
         H           -3.736768381937    -0.615912501394     0.012622530922     1.007825032230
         H            2.205293618063    -2.631210501394     0.279464530922     1.007825032230
         H            2.053515618063    -1.607897501394     1.710985530922     1.007825032230
         H            3.462052618063    -1.420896501394     0.617140530922     1.007825032230

  Running in c1 symmetry.

  Rotational constants: A =      0.04845  B =      0.03778  C =      0.02252 [cm^-1]
  Rotational constants: A =   1452.41167  B =   1132.50266  C =    675.13995 [MHz]
  Nuclear repulsion =  561.828980231718788

  Charge       = 0
  Multiplicity = 1
  Electrons    = 80
  Nalpha       = 40
  Nbeta        = 40

  ==> Algorithm <==

  SCF Algorithm Type is DF.
  DIIS enabled.
  MOM disabled.
  Fractional occupation disabled.
  Guess Type is SAD.
  Energy threshold   = 1.00e-10
  Density threshold  = 1.00e-10
  Integral threshold = 1.00e-12

  ==> Primary Basis <==

  Basis Set: AUG-CC-PVTZ
    Blend: AUG-CC-PVTZ
    Number of shells: 205
    Number of basis functions: 625
    Number of Cartesian functions: 729
    Spherical Harmonics?: true
    Max angular momentum: 3

   => Loading Basis Set <=

    Name: (AUG-CC-PVTZ AUX)
    Role: JKFIT
    Keyword: DF_BASIS_SCF
    atoms 1     entry CL         line   816 file /home1/07844/xy3866/miniconda3/envs/p4env/share/psi4/basis/aug-cc-pvtz-jkfit.gbs 
    atoms 2     entry O          line   286 file /home1/07844/xy3866/miniconda3/envs/p4env/share/psi4/basis/aug-cc-pvtz-jkfit.gbs 
    atoms 3-10  entry C          line   162 file /home1/07844/xy3866/miniconda3/envs/p4env/share/psi4/basis/aug-cc-pvtz-jkfit.gbs 
    atoms 11-17 entry H          line    70 file /home1/07844/xy3866/miniconda3/envs/p4env/share/psi4/basis/aug-cc-pvtz-jkfit.gbs 

  ==> Integral Setup <==

  DFHelper Memory: AOs need 3.959 GiB; user supplied 22.352 GiB. Using in-core AOs.

  ==> MemDFJK: Density-Fitted J/K Matrices <==

    J tasked:                   Yes
    K tasked:                   Yes
    wK tasked:                   No
    OpenMP threads:              32
    Memory [MiB]:             22888
    Algorithm:                 Core
    Schwarz Cutoff:           1E-12
    Mask sparsity (%):       7.6708
    Fitting Condition:        1E-10

   => Auxiliary Basis Set <=

  Basis Set: (AUG-CC-PVTZ AUX)
    Blend: AUG-CC-PVTZ-JKFIT
    Number of shells: 410
    Number of basis functions: 1404
    Number of Cartesian functions: 1744
    Spherical Harmonics?: true
    Max angular momentum: 4

  Minimum eigenvalue in the overlap matrix is 9.3439310509E-07.
  Reciprocal condition number of the overlap matrix is 5.1295114117E-08.
    Using symmetric orthogonalization.

  ==> Pre-Iterations <==

  SCF Guess: Superposition of Atomic Densities via on-the-fly atomic UHF (no occupation information).

   -------------------------
    Irrep   Nso     Nmo    
   -------------------------
     A        625     625 
   -------------------------
    Total     625     625
   -------------------------

  ==> Iterations <==

                           Total Energy        Delta E     RMS |[F,P]|

   @DF-RHF iter SAD:  -840.73152721321696   -8.40732e+02   0.00000e+00 
   @DF-RHF iter   1:  -841.24285426525648   -5.11327e-01   1.09887e-03 DIIS
   @DF-RHF iter   2:  -841.44980683899109   -2.06953e-01   6.17260e-04 DIIS
   @DF-RHF iter   3:  -841.50793316980617   -5.81263e-02   1.34531e-04 DIIS
   @DF-RHF iter   4:  -841.51234676302511   -4.41359e-03   6.45334e-05 DIIS
   @DF-RHF iter   5:  -841.51330944005372   -9.62677e-04   1.37576e-05 DIIS
   @DF-RHF iter   6:  -841.51340022968657   -9.07896e-05   6.71896e-06 DIIS
   @DF-RHF iter   7:  -841.51342507001345   -2.48403e-05   2.97772e-06 DIIS
   @DF-RHF iter   8:  -841.51343131279884   -6.24279e-06   1.30823e-06 DIIS
   @DF-RHF iter   9:  -841.51343271850260   -1.40570e-06   5.34568e-07 DIIS
   @DF-RHF iter  10:  -841.51343297881226   -2.60310e-07   2.03044e-07 DIIS
   @DF-RHF iter  11:  -841.51343302290388   -4.40916e-08   9.14545e-08 DIIS
   @DF-RHF iter  12:  -841.51343303043177   -7.52789e-09   3.85908e-08 DIIS
   @DF-RHF iter  13:  -841.51343303161184   -1.18007e-09   1.53679e-08 DIIS
   @DF-RHF iter  14:  -841.51343303179431   -1.82467e-10   5.18638e-09 DIIS
   @DF-RHF iter  15:  -841.51343303181557   -2.12594e-11   1.70863e-09 DIIS
   @DF-RHF iter  16:  -841.51343303181648   -9.09495e-13   6.98275e-10 DIIS
   @DF-RHF iter  17:  -841.51343303181602    4.54747e-13   3.29715e-10 DIIS
   @DF-RHF iter  18:  -841.51343303181773   -1.70530e-12   1.79519e-10 DIIS
   @DF-RHF iter  19:  -841.51343303181693    7.95808e-13   8.51043e-11 DIIS
  Energy and wave function converged.


  ==> Post-Iterations <==

    Orbital Energies [Eh]
    ---------------------

    Doubly Occupied:                                                      

       1A   -104.840555     2A    -20.554103     3A    -11.346886  
       4A    -11.319094     5A    -11.272788     6A    -11.268846  
       7A    -11.268386     8A    -11.267014     9A    -11.259956  
      10A    -11.243445    11A    -10.564319    12A     -8.031222  
      13A     -8.029248    14A     -8.029198    15A     -1.384788  
      16A     -1.194830    17A     -1.124672    18A     -1.062513  
      19A     -1.007585    20A     -1.001624    21A     -0.884608  
      22A     -0.833657    23A     -0.773309    24A     -0.709352  
      25A     -0.674340    26A     -0.664561    27A     -0.631279  
      28A     -0.620580    29A     -0.599683    30A     -0.591911  
      31A     -0.573829    32A     -0.556333    33A     -0.540620  
      34A     -0.512647    35A     -0.496546    36A     -0.471723  
      37A     -0.457329    38A     -0.420511    39A     -0.354214  
      40A     -0.346203  

    Virtual:                                                              

      41A      0.022725    42A      0.028676    43A      0.035361  
      44A      0.043746    45A      0.046194    46A      0.054568  
      47A      0.063020    48A      0.065922    49A      0.080043  
      50A      0.083577    51A      0.088273    52A      0.090493  
      53A      0.098581    54A      0.106154    55A      0.109358  
      56A      0.112836    57A      0.114932    58A      0.120048  
      59A      0.126814    60A      0.130156    61A      0.131469  
      62A      0.134095    63A      0.138197    64A      0.140009  
      65A      0.142906    66A      0.144749    67A      0.156216  
      68A      0.161440    69A      0.163744    70A      0.164543  
      71A      0.170686    72A      0.180554    73A      0.184978  
      74A      0.188280    75A      0.195120    76A      0.198370  
      77A      0.204040    78A      0.207987    79A      0.220244  
      80A      0.226502    81A      0.230212    82A      0.243278  
      83A      0.247611    84A      0.252112    85A      0.256597  
      86A      0.263059    87A      0.268324    88A      0.277032  
      89A      0.284116    90A      0.288273    91A      0.293366  
      92A      0.297226    93A      0.299911    94A      0.305329  
      95A      0.308480    96A      0.315692    97A      0.317648  
      98A      0.319888    99A      0.325935   100A      0.331752  
     101A      0.335425   102A      0.340355   103A      0.352153  
     104A      0.353798   105A      0.359132   106A      0.364778  
     107A      0.375511   108A      0.382188   109A      0.387877  
     110A      0.390630   111A      0.399885   112A      0.401733  
     113A      0.406942   114A      0.411626   115A      0.418282  
     116A      0.420414   117A      0.423040   118A      0.432457  
     119A      0.438464   120A      0.444689   121A      0.448055  
     122A      0.452518   123A      0.459054   124A      0.459896  
     125A      0.463117   126A      0.469424   127A      0.471634  
     128A      0.483001   129A      0.486940   130A      0.490348  
     131A      0.495202   132A      0.498723   133A      0.500403  
     134A      0.502662   135A      0.506346   136A      0.512043  
     137A      0.518375   138A      0.522973   139A      0.526139  
     140A      0.531800   141A      0.536330   142A      0.543833  
     143A      0.547389   144A      0.554300   145A      0.562398  
     146A      0.567602   147A      0.573569   148A      0.580154  
     149A      0.585733   150A      0.593786   151A      0.602540  
     152A      0.610119   153A      0.621268   154A      0.623475  
     155A      0.628109   156A      0.640018   157A      0.646462  
     158A      0.652043   159A      0.662673   160A      0.668078  
     161A      0.671607   162A      0.678287   163A      0.690305  
     164A      0.696494   165A      0.706166   166A      0.714266  
     167A      0.719421   168A      0.729537   169A      0.735724  
     170A      0.741919   171A      0.758180   172A      0.766374  
     173A      0.772448   174A      0.776708   175A      0.785502  
     176A      0.798005   177A      0.807210   178A      0.811452  
     179A      0.816302   180A      0.820864   181A      0.837952  
     182A      0.839651   183A      0.850334   184A      0.856583  
     185A      0.857397   186A      0.860695   187A      0.866506  
     188A      0.870993   189A      0.879232   190A      0.886877  
     191A      0.888667   192A      0.892050   193A      0.899765  
     194A      0.905934   195A      0.907212   196A      0.914303  
     197A      0.923376   198A      0.926155   199A      0.932491  
     200A      0.934171   201A      0.942968   202A      0.949835  
     203A      0.953653   204A      0.958813   205A      0.962508  
     206A      0.970859   207A      0.979112   208A      0.984291  
     209A      0.993586   210A      0.998612   211A      1.000570  
     212A      1.005259   213A      1.017310   214A      1.028111  
     215A      1.032712   216A      1.034454   217A      1.035926  
     218A      1.050423   219A      1.059052   220A      1.061301  
     221A      1.064794   222A      1.072446   223A      1.073809  
     224A      1.081678   225A      1.081780   226A      1.089669  
     227A      1.097348   228A      1.102140   229A      1.110488  
     230A      1.113197   231A      1.122680   232A      1.124693  
     233A      1.131152   234A      1.135183   235A      1.144080  
     236A      1.153028   237A      1.159407   238A      1.164659  
     239A      1.171851   240A      1.183721   241A      1.185157  
     242A      1.192037   243A      1.202797   244A      1.205819  
     245A      1.211427   246A      1.216589   247A      1.226690  
     248A      1.231295   249A      1.234144   250A      1.237311  
     251A      1.250173   252A      1.257185   253A      1.260745  
     254A      1.263882   255A      1.287872   256A      1.291996  
     257A      1.298635   258A      1.302702   259A      1.318387  
     260A      1.324089   261A      1.339085   262A      1.344682  
     263A      1.360683   264A      1.364438   265A      1.372321  
     266A      1.377874   267A      1.393664   268A      1.401869  
     269A      1.411880   270A      1.416586   271A      1.424054  
     272A      1.435009   273A      1.447091   274A      1.455987  
     275A      1.458493   276A      1.474857   277A      1.484300  
     278A      1.491707   279A      1.504424   280A      1.516050  
     281A      1.528387   282A      1.531687   283A      1.544304  
     284A      1.551451   285A      1.557116   286A      1.571958  
     287A      1.578833   288A      1.595317   289A      1.603527  
     290A      1.609992   291A      1.617678   292A      1.635013  
     293A      1.646137   294A      1.652553   295A      1.657546  
     296A      1.662723   297A      1.669644   298A      1.676421  
     299A      1.692593   300A      1.708703   301A      1.714061  
     302A      1.725805   303A      1.728463   304A      1.744069  
     305A      1.751748   306A      1.759132   307A      1.765862  
     308A      1.774405   309A      1.783211   310A      1.784681  
     311A      1.792406   312A      1.813449   313A      1.834016  
     314A      1.839914   315A      1.846509   316A      1.852949  
     317A      1.857319   318A      1.868078   319A      1.875337  
     320A      1.884607   321A      1.897139   322A      1.915738  
     323A      1.919137   324A      1.928211   325A      1.943649  
     326A      1.952810   327A      1.954611   328A      1.961500  
     329A      1.972394   330A      1.983880   331A      1.991476  
     332A      1.999655   333A      2.012753   334A      2.015808  
     335A      2.025870   336A      2.027422   337A      2.039289  
     338A      2.052970   339A      2.064617   340A      2.070715  
     341A      2.088963   342A      2.101563   343A      2.110515  
     344A      2.118831   345A      2.126138   346A      2.138616  
     347A      2.153394   348A      2.185162   349A      2.187116  
     350A      2.198812   351A      2.210899   352A      2.212566  
     353A      2.220865   354A      2.254756   355A      2.262155  
     356A      2.275041   357A      2.284741   358A      2.295798  
     359A      2.305043   360A      2.314975   361A      2.326989  
     362A      2.330971   363A      2.345382   364A      2.359408  
     365A      2.391156   366A      2.403449   367A      2.415342  
     368A      2.430041   369A      2.449195   370A      2.473418  
     371A      2.490300   372A      2.496510   373A      2.506322  
     374A      2.528845   375A      2.541974   376A      2.555467  
     377A      2.573289   378A      2.581684   379A      2.593785  
     380A      2.617039   381A      2.654745   382A      2.667471  
     383A      2.674164   384A      2.676987   385A      2.701381  
     386A      2.724770   387A      2.739435   388A      2.747436  
     389A      2.762495   390A      2.778459   391A      2.812081  
     392A      2.822310   393A      2.835603   394A      2.869541  
     395A      2.879782   396A      2.908366   397A      2.918889  
     398A      2.952600   399A      2.986021   400A      3.006615  
     401A      3.040877   402A      3.050973   403A      3.078540  
     404A      3.090998   405A      3.102556   406A      3.138754  
     407A      3.157794   408A      3.165230   409A      3.187550  
     410A      3.204097   411A      3.216425   412A      3.233645  
     413A      3.252186   414A      3.265272   415A      3.272316  
     416A      3.282704   417A      3.289952   418A      3.305861  
     419A      3.319038   420A      3.327890   421A      3.332495  
     422A      3.338924   423A      3.370562   424A      3.385241  
     425A      3.395057   426A      3.403744   427A      3.405056  
     428A      3.417616   429A      3.421337   430A      3.435136  
     431A      3.456814   432A      3.459171   433A      3.469796  
     434A      3.488662   435A      3.497808   436A      3.514557  
     437A      3.523179   438A      3.541721   439A      3.555448  
     440A      3.562283   441A      3.570610   442A      3.579442  
     443A      3.597654   444A      3.602445   445A      3.616911  
     446A      3.617977   447A      3.627178   448A      3.649566  
     449A      3.659224   450A      3.668134   451A      3.677610  
     452A      3.683623   453A      3.705022   454A      3.723569  
     455A      3.734155   456A      3.755864   457A      3.764355  
     458A      3.787285   459A      3.798214   460A      3.814231  
     461A      3.818492   462A      3.835777   463A      3.849573  
     464A      3.853227   465A      3.859955   466A      3.864493  
     467A      3.881905   468A      3.888009   469A      3.898944  
     470A      3.914930   471A      3.929143   472A      3.943962  
     473A      3.947189   474A      3.972210   475A      3.983326  
     476A      3.992506   477A      4.000499   478A      4.007334  
     479A      4.013267   480A      4.036204   481A      4.056399  
     482A      4.066246   483A      4.069000   484A      4.079902  
     485A      4.092782   486A      4.098196   487A      4.117595  
     488A      4.127225   489A      4.141626   490A      4.146318  
     491A      4.160195   492A      4.175935   493A      4.181233  
     494A      4.197348   495A      4.209246   496A      4.210718  
     497A      4.232266   498A      4.252018   499A      4.265519  
     500A      4.271482   501A      4.293067   502A      4.312930  
     503A      4.327830   504A      4.340224   505A      4.347902  
     506A      4.362844   507A      4.369722   508A      4.371299  
     509A      4.375265   510A      4.388957   511A      4.406667  
     512A      4.432797   513A      4.437831   514A      4.455655  
     515A      4.460619   516A      4.484515   517A      4.501732  
     518A      4.509152   519A      4.542281   520A      4.547578  
     521A      4.560963   522A      4.579827   523A      4.606116  
     524A      4.617074   525A      4.636817   526A      4.652162  
     527A      4.671174   528A      4.684107   529A      4.703227  
     530A      4.722181   531A      4.750218   532A      4.758424  
     533A      4.778161   534A      4.800107   535A      4.818826  
     536A      4.843508   537A      4.853776   538A      4.873768  
     539A      4.882227   540A      4.902601   541A      4.916089  
     542A      4.929447   543A      4.940547   544A      4.963994  
     545A      4.980519   546A      4.997050   547A      5.026973  
     548A      5.058228   549A      5.064297   550A      5.082966  
     551A      5.103623   552A      5.115041   553A      5.127657  
     554A      5.137331   555A      5.163380   556A      5.185735  
     557A      5.195557   558A      5.219523   559A      5.227631  
     560A      5.244648   561A      5.252582   562A      5.296486  
     563A      5.303967   564A      5.324557   565A      5.360894  
     566A      5.379257   567A      5.386757   568A      5.412096  
     569A      5.416779   570A      5.452168   571A      5.483840  
     572A      5.522922   573A      5.574973   574A      5.628488  
     575A      5.635644   576A      5.669099   577A      5.692057  
     578A      5.743934   579A      5.767557   580A      5.783815  
     581A      5.834700   582A      5.859322   583A      5.988078  
     584A      6.001073   585A      6.043060   586A      6.089285  
     587A      6.106735   588A      6.140310   589A      6.161044  
     590A      6.188271   591A      6.238708   592A      6.276044  
     593A      6.310643   594A      6.412330   595A      6.449284  
     596A      6.497029   597A      6.571705   598A      6.711945  
     599A      6.732552   600A      6.742158   601A      6.767224  
     602A      6.816700   603A      6.904631   604A      7.000755  
     605A      7.061981   606A      7.096602   607A      7.152784  
     608A      7.249932   609A      7.395391   610A      7.478443  
     611A      7.508676   612A      7.644528   613A      7.746927  
     614A      7.884013   615A      7.964582   616A      8.527759  
     617A     15.430658   618A     15.802146   619A     16.349991  
     620A     17.182652   621A     18.134655   622A     19.140253  
     623A     19.463571   624A     19.654007   625A     20.532612  

    Final Occupation by Irrep:
              A 
    DOCC [    40 ]

  @DF-RHF Final Energy:  -841.51343303181693

   => Energetics <=

    Nuclear Repulsion Energy =            561.8289802317187878
    One-Electron Energy =               -2269.1162142198213587
    Two-Electron Energy =                 865.7738009562856405
    Total Energy =                       -841.5134330318169305

Computation Completed

*** tstop() called on c402-023.stampede2.tacc.utexas.edu at Sat Feb 27 16:35:59 2021
Module time:
	user time   =     633.59 seconds =      10.56 minutes
	system time =      40.82 seconds =       0.68 minutes
	total time  =         38 seconds =       0.63 minutes
Total time:
	user time   =     633.59 seconds =      10.56 minutes
	system time =      40.82 seconds =       0.68 minutes
	total time  =         38 seconds =       0.63 minutes
   => Loading Basis Set <=

    Name: (AUG-CC-PVTZ AUX)
    Role: RIFIT
    Keyword: DF_BASIS_MP2
    atoms 1     entry CL         line   742 file /home1/07844/xy3866/miniconda3/envs/p4env/share/psi4/basis/aug-cc-pvtz-ri.gbs 
    atoms 2     entry O          line   264 file /home1/07844/xy3866/miniconda3/envs/p4env/share/psi4/basis/aug-cc-pvtz-ri.gbs 
    atoms 3-10  entry C          line   148 file /home1/07844/xy3866/miniconda3/envs/p4env/share/psi4/basis/aug-cc-pvtz-ri.gbs 
    atoms 11-17 entry H          line    30 file /home1/07844/xy3866/miniconda3/envs/p4env/share/psi4/basis/aug-cc-pvtz-ri.gbs 


*** tstart() called on c402-023.stampede2.tacc.utexas.edu
*** at Sat Feb 27 16:36:00 2021


  //>>>>>>>>>>>>>>>>>>>>>>>>>>>>>>>>>>>//
  //               DFMP2               //
  //<<<<<<<<<<<<<<<<<<<<<<<<<<<<<<<<<<<//

	 --------------------------------------------------------
	                          DF-MP2                         
	      2nd-Order Density-Fitted Moller-Plesset Theory     
	              RMP2 Wavefunction,  32 Threads             
	                                                         
	        Rob Parrish, Justin Turney, Andy Simmonett,      
	           Ed Hohenstein, and C. David Sherrill          
	 --------------------------------------------------------

   => Auxiliary Basis Set <=

  Basis Set: (AUG-CC-PVTZ AUX)
    Blend: AUG-CC-PVTZ-RI
    Number of shells: 387
    Number of basis functions: 1423
    Number of Cartesian functions: 1800
    Spherical Harmonics?: true
    Max angular momentum: 4

	 --------------------------------------------------------
	                 NBF =   625, NAUX =  1423
	 --------------------------------------------------------
	   CLASS    FOCC     OCC    AOCC    AVIR     VIR    FVIR
	   PAIRS       0      40      40     585     585       0
	 --------------------------------------------------------

  DFHelper Memory: AOs need 4.088 GiB; user supplied 22.352 GiB. Using in-core AOs.


         ------------------------------------------------------------
                                     CPHF                           
                                  Rob Parrish                       
         ------------------------------------------------------------

  ==> Geometry <==

    Molecular point group: c1
    Full point group: C1

    Geometry (in Angstrom), charge = 0, multiplicity = 1:

       Center              X                  Y                   Z               Mass       
    ------------   -----------------  -----------------  -----------------  -----------------
         CL           0.206568618063     2.176327498606     0.200640530922    34.968852682000
         O            2.264203618063     0.212227498606    -0.863797469078    15.994914619570
         C            0.163100618063    -0.561211501394    -0.052551469078    12.000000000000
         C           -0.574087381937     0.630894498606     0.044206530922    12.000000000000
         C           -0.543192381937    -1.772631501394    -0.119247469078    12.000000000000
         C            1.662138618063    -0.581846501394    -0.145793469078    12.000000000000
         C           -1.969581381937     0.605603498606     0.081912530922    12.000000000000
         C           -1.936067381937    -1.802872501394    -0.106117469078    12.000000000000
         C           -2.731810181937    -0.660639801394    -0.009894969078    12.000000000000
         C            2.391931618063    -1.626111501394     0.670963530922    12.000000000000
         H            0.008564618063    -2.705603501394    -0.200015469078     1.007825032230
         H           -2.513495381937     1.541463498606     0.173564530922     1.007825032230
         H           -2.459885381937    -2.752637501394    -0.174230469078     1.007825032230
         H           -3.736768381937    -0.615912501394     0.012622530922     1.007825032230
         H            2.205293618063    -2.631210501394     0.279464530922     1.007825032230
         H            2.053515618063    -1.607897501394     1.710985530922     1.007825032230
         H            3.462052618063    -1.420896501394     0.617140530922     1.007825032230

  Nuclear repulsion =  561.828980231718788
  Reference energy  = -841.513433031816930

  ==> Basis Set <==

  Basis Set: AUG-CC-PVTZ
    Blend: AUG-CC-PVTZ
    Number of shells: 205
    Number of basis functions: 625
    Number of Cartesian functions: 729
    Spherical Harmonics?: true
    Max angular momentum: 3

  ==> CGRSolver (by Rob Parrish) <==

   Number of roots    =         1
   Preconditioning    =    JACOBI
   Convergence cutoff =     1E-06
   Maximum iterations =       100

  ==> CPHFRHamiltonian (by Rob Parrish) <== 

  ==> MemDFJK: Density-Fitted J/K Matrices <==

    J tasked:                   Yes
    K tasked:                   Yes
    wK tasked:                   No
    OpenMP threads:              32
    Memory [MiB]:             22888
    Algorithm:                 Core
    Schwarz Cutoff:           1E-12
    Mask sparsity (%):       4.5261
    Fitting Condition:        1E-10

   => Auxiliary Basis Set <=

  Basis Set: (AUG-CC-PVTZ AUX)
    Blend: AUG-CC-PVTZ-JKFIT
    Number of shells: 410
    Number of basis functions: 1404
    Number of Cartesian functions: 1744
    Spherical Harmonics?: true
    Max angular momentum: 4

  ==> CPHF Iterations <==

  => Iterations <=

             Iter  Converged  Remaining    Residual
  CGR           1          0          1   1.096E-01
  CGR           2          0          1   3.132E-02
  CGR           3          0          1   1.095E-02
  CGR           4          0          1   5.202E-03
  CGR           5          0          1   2.316E-03
  CGR           6          0          1   1.056E-03
  CGR           7          0          1   3.753E-04
  CGR           8          0          1   1.563E-04
  CGR           9          0          1   5.748E-05
  CGR          10          0          1   2.316E-05
  CGR          11          0          1   9.451E-06
  CGR          12          0          1   3.686E-06
  CGR          13          0          1   1.515E-06
  CGR          14          1          0   7.251E-07

    CGRSolver converged.

	-----------------------------------------------------------
	 ==================> DF-MP2 Energies <==================== 
	-----------------------------------------------------------
	 Reference Energy          =    -841.5134330318169305 [Eh]
	 Singles Energy            =      -0.0000000000000000 [Eh]
	 Same-Spin Energy          =      -0.4742817262911043 [Eh]
	 Opposite-Spin Energy      =      -1.4503472455077184 [Eh]
	 Correlation Energy        =      -1.9246289717988228 [Eh]
	 Total Energy              =    -843.4380620036157552 [Eh]
	-----------------------------------------------------------
	 ================> DF-SCS-MP2 Energies <================== 
	-----------------------------------------------------------
	 SCS Same-Spin Scale       =       0.3333333333333333 [-]
	 SCS Opposite-Spin Scale   =       1.2000000000000000 [-]
	 SCS Same-Spin Energy      =      -0.1580939087637014 [Eh]
	 SCS Opposite-Spin Energy  =      -1.7404166946092621 [Eh]
	 SCS Correlation Energy    =      -1.8985106033729635 [Eh]
	 SCS Total Energy          =    -843.4119436351899139 [Eh]
	-----------------------------------------------------------



Properties will be evaluated at  -0.000000,   0.000000,  -0.000000 [a0]

Properties computed using the MP2 density matrix

  Nuclear Dipole Moment: [e a0]
     X:    -1.0976      Y:   -11.5466      Z:     2.0804

  Electronic Dipole Moment: [e a0]
     X:     0.2260      Y:    10.3691      Z:    -1.5185

  Dipole Moment: [e a0]
     X:    -0.8716      Y:    -1.1775      Z:     0.5619     Total:     1.5691

  Dipole Moment: [D]
     X:    -2.2154      Y:    -2.9929      Z:     1.4283     Total:     3.9882


*** tstop() called on c402-023.stampede2.tacc.utexas.edu at Sat Feb 27 16:40:19 2021
Module time:
	user time   =    1833.32 seconds =      30.56 minutes
	system time =      59.00 seconds =       0.98 minutes
	total time  =        259 seconds =       4.32 minutes
Total time:
	user time   =    2467.78 seconds =      41.13 minutes
	system time =      99.84 seconds =       1.66 minutes
	total time  =        298 seconds =       4.97 minutes

    Psi4 stopped on: Saturday, 27 February 2021 04:40PM
    Psi4 wall time for execution: 0:04:59.09

*** Psi4 exiting successfully. Buy a developer a beer!
