
    -----------------------------------------------------------------------
          Psi4: An Open-Source Ab Initio Electronic Structure Package
                               Psi4 1.3.2 release

                         Git: Rev {HEAD} ecbda83 


    R. M. Parrish, L. A. Burns, D. G. A. Smith, A. C. Simmonett,
    A. E. DePrince III, E. G. Hohenstein, U. Bozkaya, A. Yu. Sokolov,
    R. Di Remigio, R. M. Richard, J. F. Gonthier, A. M. James,
    H. R. McAlexander, A. Kumar, M. Saitow, X. Wang, B. P. Pritchard,
    P. Verma, H. F. Schaefer III, K. Patkowski, R. A. King, E. F. Valeev,
    F. A. Evangelista, J. M. Turney, T. D. Crawford, and C. D. Sherrill,
    J. Chem. Theory Comput. 13(7) pp 3185--3197 (2017).
    (doi: 10.1021/acs.jctc.7b00174)


                         Additional Contributions by
    P. Kraus, H. Kruse, M. H. Lechner, M. C. Schieber, R. A. Shaw,
    A. Alenaizan, R. Galvelis, Z. L. Glick, S. Lehtola, and J. P. Misiewicz

    -----------------------------------------------------------------------


    Psi4 started on: Monday, 02 November 2020 07:01PM

    Process ID: 74853
    Host:       node57.bme.utexas.edu
    PSIDATADIR: /home/xy3866/psi4conda/share/psi4
    Memory:     500.0 MiB
    Threads:    8
    
  ==> Input File <==

--------------------------------------------------------------------------
#psi4
#
memory 32 gb

molecule  {
0 1
  O        3.1501630     0.3869830     0.0122970
  O        1.7226580    -1.3643080    -0.2059640
  C       -2.9163610     0.3476720    -0.5022120
  C       -1.5906581     0.7934842    -0.4137520
  C        0.8585340     0.8235180     0.4136200
  C       -0.5245990     0.2621860     0.3264500
  C       -3.2476580    -0.8824200     0.3361610
  C        1.9107340    -0.1856640     0.0271730
  H       -3.5825680     1.1749950    -0.2170990
  H       -3.1475630     0.1432210    -1.5599470
  H       -1.2553160     1.7190160    -0.9933200
  H        0.9787830     1.7133270    -0.2211670
  H        1.0972480     1.1531100     1.4329360
  H       -0.7130820    -0.6444280     0.9033180
  H       -4.2956480    -1.1625270     0.2123440
  H       -2.6314050    -1.7369230     0.0388270
  H       -3.0739380    -0.6897760     1.4001060
  H        3.7686820    -0.3352680    -0.2293440
units angstrom
no_reorient  #important for SAPT in psi4, default
symmetry c1  #important for SAPT in psi4, default
}

set PROPERTIES_ORIGIN ["COM"]
properties('MP2/aug-cc-pvtz', properties = ['dipole'])
--------------------------------------------------------------------------

  Memory set to  29.802 GiB by Python driver.
    SCF Algorithm Type (re)set to DF.

*** tstart() called on node57.bme.utexas.edu
*** at Mon Nov  2 19:01:02 2020

   => Loading Basis Set <=

    Name: AUG-CC-PVTZ
    Role: ORBITAL
    Keyword: BASIS
    atoms 1-2  entry O          line   327 file /home/xy3866/psi4conda/share/psi4/basis/aug-cc-pvtz.gbs 
    atoms 3-8  entry C          line   235 file /home/xy3866/psi4conda/share/psi4/basis/aug-cc-pvtz.gbs 
    atoms 9-18 entry H          line    36 file /home/xy3866/psi4conda/share/psi4/basis/aug-cc-pvtz.gbs 


         ---------------------------------------------------------
                                   SCF
               by Justin Turney, Rob Parrish, Andy Simmonett
                          and Daniel G. A. Smith
                              RHF Reference
                        8 Threads,  30517 MiB Core
         ---------------------------------------------------------

  ==> Geometry <==

    Molecular point group: c1
    Full point group: C1

    Geometry (in Angstrom), charge = 0, multiplicity = 1:

       Center              X                  Y                   Z               Mass       
    ------------   -----------------  -----------------  -----------------  -----------------
         O            3.160114404740     0.390329458481     0.012961112499    15.994914619570
         O            1.732609404740    -1.360961541519    -0.205299887501    15.994914619570
         C           -2.906409595260     0.351018458481    -0.501547887501    12.000000000000
         C           -1.580706695260     0.796830658481    -0.413087887501    12.000000000000
         C            0.868485404740     0.826864458481     0.414284112499    12.000000000000
         C           -0.514647595260     0.265532458481     0.327114112499    12.000000000000
         C           -3.237706595260    -0.879073541519     0.336825112499    12.000000000000
         C            1.920685404740    -0.182317541519     0.027837112499    12.000000000000
         H           -3.572616595260     1.178341458481    -0.216434887501     1.007825032230
         H           -3.137611595260     0.146567458481    -1.559282887501     1.007825032230
         H           -1.245364595260     1.722362458481    -0.992655887501     1.007825032230
         H            0.988734404740     1.716673458481    -0.220502887501     1.007825032230
         H            1.107199404740     1.156456458481     1.433600112499     1.007825032230
         H           -0.703130595260    -0.641081541519     0.903982112499     1.007825032230
         H           -4.285696595260    -1.159180541519     0.213008112499     1.007825032230
         H           -2.621453595260    -1.733576541519     0.039491112499     1.007825032230
         H           -3.063986595260    -0.686429541519     1.400770112499     1.007825032230
         H            3.778633404740    -0.331921541519    -0.228679887501     1.007825032230

  Running in c1 symmetry.

  Rotational constants: A =      0.18180  B =      0.02734  C =      0.02508 [cm^-1]
  Rotational constants: A =   5450.14638  B =    819.63815  C =    751.94175 [MHz]
  Nuclear repulsion =  355.010490938178123

  Charge       = 0
  Multiplicity = 1
  Electrons    = 62
  Nalpha       = 31
  Nbeta        = 31

  ==> Algorithm <==

  SCF Algorithm Type is DF.
  DIIS enabled.
  MOM disabled.
  Fractional occupation disabled.
  Guess Type is SAD.
  Energy threshold   = 1.00e-10
  Density threshold  = 1.00e-10
  Integral threshold = 0.00e+00

  ==> Primary Basis <==

  Basis Set: AUG-CC-PVTZ
    Blend: AUG-CC-PVTZ
    Number of shells: 202
    Number of basis function: 598
    Number of Cartesian functions: 690
    Spherical Harmonics?: true
    Max angular momentum: 3

   => Loading Basis Set <=

    Name: (AUG-CC-PVTZ AUX)
    Role: JKFIT
    Keyword: DF_BASIS_SCF
    atoms 1-2  entry O          line   286 file /home/xy3866/psi4conda/share/psi4/basis/aug-cc-pvtz-jkfit.gbs 
    atoms 3-8  entry C          line   162 file /home/xy3866/psi4conda/share/psi4/basis/aug-cc-pvtz-jkfit.gbs 
    atoms 9-18 entry H          line    70 file /home/xy3866/psi4conda/share/psi4/basis/aug-cc-pvtz-jkfit.gbs 

  ==> Pre-Iterations <==

   -------------------------------------------------------
    Irrep   Nso     Nmo     Nalpha   Nbeta   Ndocc  Nsocc
   -------------------------------------------------------
     A        598     598       0       0       0       0
   -------------------------------------------------------
    Total     598     598      31      31      31       0
   -------------------------------------------------------

  ==> Integral Setup <==

  DFHelper Memory: AOs need 3.272 GiB; user supplied 22.352 GiB. Using in-core AOs.

  ==> MemDFJK: Density-Fitted J/K Matrices <==

    J tasked:                   Yes
    K tasked:                   Yes
    wK tasked:                   No
    OpenMP threads:               8
    Memory [MiB]:             22888
    Algorithm:                 Disk
    Schwarz Cutoff:           1E-12
    Mask sparsity (%):       8.0256
    Fitting Condition:        1E-10

   => Auxiliary Basis Set <=

  Basis Set: (AUG-CC-PVTZ AUX)
    Blend: AUG-CC-PVTZ-JKFIT
    Number of shells: 380
    Number of basis function: 1292
    Number of Cartesian functions: 1598
    Spherical Harmonics?: true
    Max angular momentum: 4

  Minimum eigenvalue in the overlap matrix is 2.8271129183E-06.
  Using Symmetric Orthogonalization.

  SCF Guess: Superposition of Atomic Densities via on-the-fly atomic UHF.

  ==> Iterations <==

                           Total Energy        Delta E     RMS |[F,P]|

   @DF-RHF iter SAD:  -381.82630636205681   -3.81826e+02   0.00000e+00 
   @DF-RHF iter   1:  -382.55520019818931   -7.28894e-01   1.30956e-03 DIIS
   @DF-RHF iter   2:  -382.80422329380679   -2.49023e-01   7.45434e-04 DIIS
   @DF-RHF iter   3:  -382.88005224293244   -7.58289e-02   1.43335e-04 DIIS
   @DF-RHF iter   4:  -382.88467135935230   -4.61912e-03   6.86730e-05 DIIS
   @DF-RHF iter   5:  -382.88562047998596   -9.49121e-04   1.27173e-05 DIIS
   @DF-RHF iter   6:  -382.88567709388309   -5.66139e-05   5.95624e-06 DIIS
   @DF-RHF iter   7:  -382.88568824142544   -1.11475e-05   2.09309e-06 DIIS
   @DF-RHF iter   8:  -382.88569050295331   -2.26153e-06   9.09167e-07 DIIS
   @DF-RHF iter   9:  -382.88569091145627   -4.08503e-07   2.79595e-07 DIIS
   @DF-RHF iter  10:  -382.88569094954443   -3.80882e-08   9.31367e-08 DIIS
   @DF-RHF iter  11:  -382.88569095246123   -2.91681e-09   3.00065e-08 DIIS
   @DF-RHF iter  12:  -382.88569095273294   -2.71712e-10   9.29232e-09 DIIS
   @DF-RHF iter  13:  -382.88569095276358   -3.06386e-11   2.01219e-09 DIIS
   @DF-RHF iter  14:  -382.88569095276665   -3.06954e-12   7.35633e-10 DIIS
   @DF-RHF iter  15:  -382.88569095276671   -5.68434e-14   2.00119e-10 DIIS
   @DF-RHF iter  16:  -382.88569095276745   -7.38964e-13   7.06612e-11 DIIS
  Energy and wave function converged.


  ==> Post-Iterations <==

    Orbital Energies [Eh]
    ---------------------

    Doubly Occupied:                                                      

       1A    -20.616010     2A    -20.552664     3A    -11.390923  
       4A    -11.256455     5A    -11.244018     6A    -11.239097  
       7A    -11.226732     8A    -11.216229     9A     -1.458752  
      10A     -1.358096    11A     -1.106143    12A     -1.054928  
      13A     -0.951971    14A     -0.880884    15A     -0.805279  
      16A     -0.731501    17A     -0.701985    18A     -0.682846  
      19A     -0.656635    20A     -0.632631    21A     -0.619627  
      22A     -0.593110    23A     -0.580996    24A     -0.553933  
      25A     -0.527764    26A     -0.506694    27A     -0.503638  
      28A     -0.483290    29A     -0.470625    30A     -0.456171  
      31A     -0.336903  

    Virtual:                                                              

      32A      0.028164    33A      0.031779    34A      0.036950  
      35A      0.039188    36A      0.048199    37A      0.053197  
      38A      0.055543    39A      0.066097    40A      0.070710  
      41A      0.075781    42A      0.089561    43A      0.103050  
      44A      0.106766    45A      0.111798    46A      0.115709  
      47A      0.119826    48A      0.124345    49A      0.128241  
      50A      0.129145    51A      0.134499    52A      0.142174  
      53A      0.147412    54A      0.149833    55A      0.154070  
      56A      0.156040    57A      0.162471    58A      0.166155  
      59A      0.171661    60A      0.173799    61A      0.180408  
      62A      0.184246    63A      0.199441    64A      0.203918  
      65A      0.213580    66A      0.221948    67A      0.227259  
      68A      0.233776    69A      0.239319    70A      0.245970  
      71A      0.253992    72A      0.261677    73A      0.264981  
      74A      0.267593    75A      0.278946    76A      0.281520  
      77A      0.287789    78A      0.291944    79A      0.301337  
      80A      0.304810    81A      0.313728    82A      0.320535  
      83A      0.330624    84A      0.331662    85A      0.339397  
      86A      0.345003    87A      0.348094    88A      0.350338  
      89A      0.358794    90A      0.362992    91A      0.368006  
      92A      0.373479    93A      0.374743    94A      0.379034  
      95A      0.383930    96A      0.387435    97A      0.391467  
      98A      0.396193    99A      0.403548   100A      0.409232  
     101A      0.412248   102A      0.421102   103A      0.423393  
     104A      0.435433   105A      0.436797   106A      0.441741  
     107A      0.448538   108A      0.452753   109A      0.457541  
     110A      0.461565   111A      0.467538   112A      0.473229  
     113A      0.481671   114A      0.485770   115A      0.490251  
     116A      0.495213   117A      0.501483   118A      0.506592  
     119A      0.513897   120A      0.516579   121A      0.520817  
     122A      0.527676   123A      0.533707   124A      0.535846  
     125A      0.545209   126A      0.551524   127A      0.555297  
     128A      0.559532   129A      0.566465   130A      0.573798  
     131A      0.577451   132A      0.584706   133A      0.588854  
     134A      0.596781   135A      0.601198   136A      0.614905  
     137A      0.621179   138A      0.627458   139A      0.637214  
     140A      0.645840   141A      0.647296   142A      0.662931  
     143A      0.674360   144A      0.675498   145A      0.685437  
     146A      0.687852   147A      0.707302   148A      0.712994  
     149A      0.727567   150A      0.732642   151A      0.746800  
     152A      0.753236   153A      0.764970   154A      0.769537  
     155A      0.779902   156A      0.791202   157A      0.803110  
     158A      0.805138   159A      0.815036   160A      0.816601  
     161A      0.826589   162A      0.837824   163A      0.841487  
     164A      0.844834   165A      0.854135   166A      0.861572  
     167A      0.871310   168A      0.872821   169A      0.875566  
     170A      0.880820   171A      0.889375   172A      0.896658  
     173A      0.899902   174A      0.906322   175A      0.910916  
     176A      0.915435   177A      0.924468   178A      0.935916  
     179A      0.937073   180A      0.944993   181A      0.950353  
     182A      0.962178   183A      0.972646   184A      0.976796  
     185A      0.981721   186A      0.986661   187A      0.992302  
     188A      0.999275   189A      1.000580   190A      1.012450  
     191A      1.020336   192A      1.028438   193A      1.032590  
     194A      1.037477   195A      1.040201   196A      1.046151  
     197A      1.057427   198A      1.058650   199A      1.063945  
     200A      1.070742   201A      1.076751   202A      1.085113  
     203A      1.091188   204A      1.096217   205A      1.104860  
     206A      1.109644   207A      1.114557   208A      1.127553  
     209A      1.132417   210A      1.135383   211A      1.144196  
     212A      1.155550   213A      1.159957   214A      1.171370  
     215A      1.174636   216A      1.183686   217A      1.192287  
     218A      1.202799   219A      1.212630   220A      1.219672  
     221A      1.224412   222A      1.228945   223A      1.234317  
     224A      1.242625   225A      1.250982   226A      1.257733  
     227A      1.263187   228A      1.268999   229A      1.270038  
     230A      1.288145   231A      1.294324   232A      1.307825  
     233A      1.318401   234A      1.322554   235A      1.326873  
     236A      1.334914   237A      1.353221   238A      1.365798  
     239A      1.378033   240A      1.381821   241A      1.394690  
     242A      1.410662   243A      1.414845   244A      1.422184  
     245A      1.430609   246A      1.438038   247A      1.440284  
     248A      1.457089   249A      1.464121   250A      1.468409  
     251A      1.483321   252A      1.494113   253A      1.501222  
     254A      1.516885   255A      1.519495   256A      1.532088  
     257A      1.542157   258A      1.550521   259A      1.554235  
     260A      1.570553   261A      1.585560   262A      1.600188  
     263A      1.610992   264A      1.614284   265A      1.624629  
     266A      1.629102   267A      1.633491   268A      1.646484  
     269A      1.671575   270A      1.681988   271A      1.686720  
     272A      1.692010   273A      1.697108   274A      1.711332  
     275A      1.720752   276A      1.723402   277A      1.730963  
     278A      1.741858   279A      1.742108   280A      1.752475  
     281A      1.762494   282A      1.772867   283A      1.782280  
     284A      1.787715   285A      1.794052   286A      1.800222  
     287A      1.807099   288A      1.821810   289A      1.829963  
     290A      1.843711   291A      1.856169   292A      1.863001  
     293A      1.878145   294A      1.886307   295A      1.894312  
     296A      1.901043   297A      1.912413   298A      1.914828  
     299A      1.928364   300A      1.944138   301A      1.950816  
     302A      1.956961   303A      1.958156   304A      1.970161  
     305A      1.999503   306A      2.003410   307A      2.015494  
     308A      2.017398   309A      2.020803   310A      2.045401  
     311A      2.048745   312A      2.057200   313A      2.066515  
     314A      2.087293   315A      2.095937   316A      2.104212  
     317A      2.114208   318A      2.140111   319A      2.149376  
     320A      2.191414   321A      2.198753   322A      2.208457  
     323A      2.217848   324A      2.239517   325A      2.243370  
     326A      2.257297   327A      2.259814   328A      2.279867  
     329A      2.284443   330A      2.290238   331A      2.304779  
     332A      2.310498   333A      2.318458   334A      2.332474  
     335A      2.353257   336A      2.359836   337A      2.380718  
     338A      2.391961   339A      2.402247   340A      2.417317  
     341A      2.426995   342A      2.454759   343A      2.466642  
     344A      2.473758   345A      2.479761   346A      2.504904  
     347A      2.509929   348A      2.522818   349A      2.545160  
     350A      2.549772   351A      2.561747   352A      2.584603  
     353A      2.604050   354A      2.624906   355A      2.629421  
     356A      2.637189   357A      2.657687   358A      2.695975  
     359A      2.729601   360A      2.756052   361A      2.772712  
     362A      2.800305   363A      2.837077   364A      2.845408  
     365A      2.858071   366A      2.895741   367A      2.923511  
     368A      2.928734   369A      2.956354   370A      2.990893  
     371A      3.022015   372A      3.041084   373A      3.075602  
     374A      3.103110   375A      3.111519   376A      3.161452  
     377A      3.174810   378A      3.212536   379A      3.265034  
     380A      3.313476   381A      3.317274   382A      3.346965  
     383A      3.378245   384A      3.393555   385A      3.398542  
     386A      3.419651   387A      3.429063   388A      3.438134  
     389A      3.446216   390A      3.466992   391A      3.483571  
     392A      3.489644   393A      3.503159   394A      3.528183  
     395A      3.533242   396A      3.549580   397A      3.587402  
     398A      3.590384   399A      3.599228   400A      3.620355  
     401A      3.633217   402A      3.635985   403A      3.652664  
     404A      3.666568   405A      3.672937   406A      3.685195  
     407A      3.697116   408A      3.718956   409A      3.722804  
     410A      3.740140   411A      3.748991   412A      3.756617  
     413A      3.765391   414A      3.773911   415A      3.788015  
     416A      3.797783   417A      3.807671   418A      3.820716  
     419A      3.823015   420A      3.845719   421A      3.847156  
     422A      3.877049   423A      3.882596   424A      3.895792  
     425A      3.914332   426A      3.926705   427A      3.948023  
     428A      3.960187   429A      3.965304   430A      3.981607  
     431A      3.998074   432A      4.008923   433A      4.017212  
     434A      4.027432   435A      4.039838   436A      4.045471  
     437A      4.050353   438A      4.063447   439A      4.087702  
     440A      4.097532   441A      4.108697   442A      4.130049  
     443A      4.149323   444A      4.153650   445A      4.167564  
     446A      4.194349   447A      4.202657   448A      4.213361  
     449A      4.227233   450A      4.234614   451A      4.256634  
     452A      4.258452   453A      4.269564   454A      4.276540  
     455A      4.298248   456A      4.319017   457A      4.328274  
     458A      4.333544   459A      4.359949   460A      4.374853  
     461A      4.386579   462A      4.406344   463A      4.416453  
     464A      4.447141   465A      4.466097   466A      4.470163  
     467A      4.496419   468A      4.513182   469A      4.527781  
     470A      4.540556   471A      4.552166   472A      4.564320  
     473A      4.569515   474A      4.581016   475A      4.595154  
     476A      4.618642   477A      4.642096   478A      4.644868  
     479A      4.677199   480A      4.682948   481A      4.704879  
     482A      4.722760   483A      4.748145   484A      4.762489  
     485A      4.790489   486A      4.800567   487A      4.820121  
     488A      4.834696   489A      4.864988   490A      4.875950  
     491A      4.880750   492A      4.889867   493A      4.896311  
     494A      4.916985   495A      4.939187   496A      4.944953  
     497A      4.953295   498A      4.958489   499A      4.994190  
     500A      5.007491   501A      5.036141   502A      5.067081  
     503A      5.080926   504A      5.101691   505A      5.117948  
     506A      5.127983   507A      5.149733   508A      5.172008  
     509A      5.188743   510A      5.200026   511A      5.214084  
     512A      5.230215   513A      5.244574   514A      5.264655  
     515A      5.277880   516A      5.281397   517A      5.310509  
     518A      5.321268   519A      5.348202   520A      5.376369  
     521A      5.394178   522A      5.411376   523A      5.415773  
     524A      5.422291   525A      5.438934   526A      5.459375  
     527A      5.464746   528A      5.488181   529A      5.511130  
     530A      5.520816   531A      5.541349   532A      5.570801  
     533A      5.589352   534A      5.651638   535A      5.663870  
     536A      5.698436   537A      5.747356   538A      5.753217  
     539A      5.772413   540A      5.795474   541A      5.834488  
     542A      5.848663   543A      5.928698   544A      5.987233  
     545A      6.007306   546A      6.032224   547A      6.063239  
     548A      6.112694   549A      6.150434   550A      6.164155  
     551A      6.199394   552A      6.218973   553A      6.243379  
     554A      6.307466   555A      6.383938   556A      6.416244  
     557A      6.497731   558A      6.540974   559A      6.639667  
     560A      6.657363   561A      6.697448   562A      6.716527  
     563A      6.741684   564A      6.774118   565A      6.803414  
     566A      6.842946   567A      6.856387   568A      6.886742  
     569A      6.890856   570A      6.902343   571A      6.928921  
     572A      7.025523   573A      7.077891   574A      7.210155  
     575A      7.249259   576A      7.281969   577A      7.356547  
     578A      7.376165   579A      7.393018   580A      7.414416  
     581A      7.558803   582A      7.567521   583A      7.626285  
     584A      7.704780   585A      7.711864   586A      7.866439  
     587A      7.988837   588A      8.054387   589A      8.231988  
     590A      8.519809   591A     15.210643   592A     15.773359  
     593A     16.717597   594A     17.189934   595A     17.937543  
     596A     18.924734   597A     19.990150   598A     20.108491  

    Final Occupation by Irrep:
              A 
    DOCC [    31 ]

  @DF-RHF Final Energy:  -382.88569095276745

   => Energetics <=

    Nuclear Repulsion Energy =            355.0104909381781226
    One-Electron Energy =               -1224.9993010962116387
    Two-Electron Energy =                 487.1031192052660685
    Total Energy =                       -382.8856909527674475

Computation Completed

*** tstop() called on node57.bme.utexas.edu at Mon Nov  2 19:01:53 2020
Module time:
	user time   =     208.64 seconds =       3.48 minutes
	system time =      25.82 seconds =       0.43 minutes
	total time  =         51 seconds =       0.85 minutes
Total time:
	user time   =     208.64 seconds =       3.48 minutes
	system time =      25.82 seconds =       0.43 minutes
	total time  =         51 seconds =       0.85 minutes
   => Loading Basis Set <=

    Name: (AUG-CC-PVTZ AUX)
    Role: RIFIT
    Keyword: DF_BASIS_MP2
    atoms 1-2  entry O          line   264 file /home/xy3866/psi4conda/share/psi4/basis/aug-cc-pvtz-ri.gbs 
    atoms 3-8  entry C          line   148 file /home/xy3866/psi4conda/share/psi4/basis/aug-cc-pvtz-ri.gbs 
    atoms 9-18 entry H          line    30 file /home/xy3866/psi4conda/share/psi4/basis/aug-cc-pvtz-ri.gbs 


*** tstart() called on node57.bme.utexas.edu
*** at Mon Nov  2 19:01:53 2020


  //>>>>>>>>>>>>>>>>>>>>>>>>>>>>>>>>>>>//
  //               DFMP2               //
  //<<<<<<<<<<<<<<<<<<<<<<<<<<<<<<<<<<<//

	 --------------------------------------------------------
	                          DF-MP2                         
	      2nd-Order Density-Fitted Moller-Plesset Theory     
	              RMP2 Wavefunction,   8 Threads             
	                                                         
	        Rob Parrish, Justin Turney, Andy Simmonett,      
	           Ed Hohenstein, and C. David Sherrill          
	 --------------------------------------------------------

   => Auxiliary Basis Set <=

  Basis Set: (AUG-CC-PVTZ AUX)
    Blend: AUG-CC-PVTZ-RI
    Number of shells: 364
    Number of basis function: 1308
    Number of Cartesian functions: 1638
    Spherical Harmonics?: true
    Max angular momentum: 4

	 --------------------------------------------------------
	                 NBF =   598, NAUX =  1308
	 --------------------------------------------------------
	   CLASS    FOCC     OCC    AOCC    AVIR     VIR    FVIR
	   PAIRS       0      31      31     567     567       0
	 --------------------------------------------------------

  DFHelper Memory: AOs need 3.272 GiB; user supplied 22.352 GiB. Using in-core AOs.


         ------------------------------------------------------------
                                     CPHF                           
                                  Rob Parrish                       
         ------------------------------------------------------------

  ==> Geometry <==

    Molecular point group: c1
    Full point group: C1

    Geometry (in Angstrom), charge = 0, multiplicity = 1:

       Center              X                  Y                   Z               Mass       
    ------------   -----------------  -----------------  -----------------  -----------------
         O            3.160114404740     0.390329458481     0.012961112499    15.994914619570
         O            1.732609404740    -1.360961541519    -0.205299887501    15.994914619570
         C           -2.906409595260     0.351018458481    -0.501547887501    12.000000000000
         C           -1.580706695260     0.796830658481    -0.413087887501    12.000000000000
         C            0.868485404740     0.826864458481     0.414284112499    12.000000000000
         C           -0.514647595260     0.265532458481     0.327114112499    12.000000000000
         C           -3.237706595260    -0.879073541519     0.336825112499    12.000000000000
         C            1.920685404740    -0.182317541519     0.027837112499    12.000000000000
         H           -3.572616595260     1.178341458481    -0.216434887501     1.007825032230
         H           -3.137611595260     0.146567458481    -1.559282887501     1.007825032230
         H           -1.245364595260     1.722362458481    -0.992655887501     1.007825032230
         H            0.988734404740     1.716673458481    -0.220502887501     1.007825032230
         H            1.107199404740     1.156456458481     1.433600112499     1.007825032230
         H           -0.703130595260    -0.641081541519     0.903982112499     1.007825032230
         H           -4.285696595260    -1.159180541519     0.213008112499     1.007825032230
         H           -2.621453595260    -1.733576541519     0.039491112499     1.007825032230
         H           -3.063986595260    -0.686429541519     1.400770112499     1.007825032230
         H            3.778633404740    -0.331921541519    -0.228679887501     1.007825032230

  Nuclear repulsion =  355.010490938178123
  Reference energy  = -382.885690952767447

  ==> Basis Set <==

  Basis Set: AUG-CC-PVTZ
    Blend: AUG-CC-PVTZ
    Number of shells: 202
    Number of basis function: 598
    Number of Cartesian functions: 690
    Spherical Harmonics?: true
    Max angular momentum: 3

  ==> CGRSolver (by Rob Parrish) <==

   Number of roots    =         1
   Preconditioning    =    JACOBI
   Convergence cutoff =     1E-06
   Maximum iterations =       100

  ==> CPHFRHamiltonian (by Rob Parrish) <== 

  ==> MemDFJK: Density-Fitted J/K Matrices <==

    J tasked:                   Yes
    K tasked:                   Yes
    wK tasked:                   No
    OpenMP threads:               8
    Memory [MiB]:             22888
    Algorithm:                 Disk
    Schwarz Cutoff:           1E-12
    Mask sparsity (%):       8.0256
    Fitting Condition:        1E-10

   => Auxiliary Basis Set <=

  Basis Set: (AUG-CC-PVTZ AUX)
    Blend: AUG-CC-PVTZ-JKFIT
    Number of shells: 380
    Number of basis function: 1292
    Number of Cartesian functions: 1598
    Spherical Harmonics?: true
    Max angular momentum: 4

  ==> CPHF Iterations <==

  => Iterations <=

             Iter  Converged  Remaining    Residual
  CGR           1          0          1   1.085E-01
  CGR           2          0          1   3.120E-02
  CGR           3          0          1   1.103E-02
  CGR           4          0          1   3.391E-03
  CGR           5          0          1   1.333E-03
  CGR           6          0          1   3.460E-04
  CGR           7          0          1   1.182E-04
  CGR           8          0          1   4.242E-05
  CGR           9          0          1   1.653E-05
  CGR          10          0          1   6.887E-06
  CGR          11          0          1   2.270E-06
  CGR          12          1          0   5.694E-07

    CGRSolver converged.

	-----------------------------------------------------------
	 ==================> DF-MP2 Energies <==================== 
	-----------------------------------------------------------
	 Reference Energy          =    -382.8856909527674475 [Eh]
	 Singles Energy            =      -0.0000000000000000 [Eh]
	 Same-Spin Energy          =      -0.3851037627451850 [Eh]
	 Opposite-Spin Energy      =      -1.2576798797250355 [Eh]
	 Correlation Energy        =      -1.6427836424702205 [Eh]
	 Total Energy              =    -384.5284745952376397 [Eh]
	-----------------------------------------------------------
	 ================> DF-SCS-MP2 Energies <================== 
	-----------------------------------------------------------
	 SCS Same-Spin Scale       =       0.3333333333333333 [-]
	 SCS Opposite-Spin Scale   =       1.2000000000000000 [-]
	 SCS Same-Spin Energy      =      -0.1283679209150617 [Eh]
	 SCS Opposite-Spin Energy  =      -1.5092158556700426 [Eh]
	 SCS Correlation Energy    =      -1.6375837765851042 [Eh]
	 SCS Total Energy          =    -384.5232747293525790 [Eh]
	-----------------------------------------------------------



Properties will be evaluated at   0.000000,   0.000000,  -0.000000 [a0]

Properties computed using the MP2 density matrix

  Nuclear Dipole Moment: [e a0]
     X:   -11.9342      Y:     1.2780      Z:     0.7240

  Electronic Dipole Moment: [e a0]
     X:    11.8233      Y:    -0.7452      Z:    -0.6505

  Dipole Moment: [e a0]
     X:    -0.1109      Y:     0.5327      Z:     0.0735     Total:     0.5491

  Dipole Moment: [D]
     X:    -0.2818      Y:     1.3541      Z:     0.1868     Total:     1.3957


*** tstop() called on node57.bme.utexas.edu at Mon Nov  2 19:03:41 2020
Module time:
	user time   =     621.66 seconds =      10.36 minutes
	system time =      30.48 seconds =       0.51 minutes
	total time  =        108 seconds =       1.80 minutes
Total time:
	user time   =     831.64 seconds =      13.86 minutes
	system time =      56.34 seconds =       0.94 minutes
	total time  =        159 seconds =       2.65 minutes

    Psi4 stopped on: Monday, 02 November 2020 07:03PM
    Psi4 wall time for execution: 0:02:40.01

*** Psi4 exiting successfully. Buy a developer a beer!
