
    -----------------------------------------------------------------------
          Psi4: An Open-Source Ab Initio Electronic Structure Package
                               Psi4 1.3.2 release

                         Git: Rev {HEAD} ecbda83 


    R. M. Parrish, L. A. Burns, D. G. A. Smith, A. C. Simmonett,
    A. E. DePrince III, E. G. Hohenstein, U. Bozkaya, A. Yu. Sokolov,
    R. Di Remigio, R. M. Richard, J. F. Gonthier, A. M. James,
    H. R. McAlexander, A. Kumar, M. Saitow, X. Wang, B. P. Pritchard,
    P. Verma, H. F. Schaefer III, K. Patkowski, R. A. King, E. F. Valeev,
    F. A. Evangelista, J. M. Turney, T. D. Crawford, and C. D. Sherrill,
    J. Chem. Theory Comput. 13(7) pp 3185--3197 (2017).
    (doi: 10.1021/acs.jctc.7b00174)


                         Additional Contributions by
    P. Kraus, H. Kruse, M. H. Lechner, M. C. Schieber, R. A. Shaw,
    A. Alenaizan, R. Galvelis, Z. L. Glick, S. Lehtola, and J. P. Misiewicz

    -----------------------------------------------------------------------


    Psi4 started on: Monday, 02 November 2020 05:12PM

    Process ID: 62503
    Host:       node57.bme.utexas.edu
    PSIDATADIR: /home/xy3866/psi4conda/share/psi4
    Memory:     500.0 MiB
    Threads:    8
    
  ==> Input File <==

--------------------------------------------------------------------------
#psi4
#
memory 32 gb

molecule  {
0 1
  O        3.1685248     0.3449238    -0.0005586
  O        1.7226580    -1.3643080    -0.2059640
  C       -2.9163610     0.3476720    -0.5022120
  C       -1.4960630     0.8252950    -0.4074400
  C        0.8220188     0.7858921     0.4088697
  C       -0.5245990     0.2621860     0.3264500
  C       -3.2476580    -0.8824200     0.3361610
  C        1.9107340    -0.1856640     0.0271730
  H       -3.5825680     1.1749950    -0.2170990
  H       -3.1475630     0.1432210    -1.5599470
  H       -1.2553160     1.7190160    -0.9933200
  H        0.9787830     1.7133270    -0.2211670
  H        1.0972480     1.1531100     1.4329360
  H       -0.7130820    -0.6444280     0.9033180
  H       -4.2956480    -1.1625270     0.2123440
  H       -2.6314050    -1.7369230     0.0388270
  H       -3.0739380    -0.6897760     1.4001060
  H        3.7686820    -0.3352680    -0.2293440
units angstrom
no_reorient  #important for SAPT in psi4, default
symmetry c1  #important for SAPT in psi4, default
}

set PROPERTIES_ORIGIN ["COM"]
properties('MP2/aug-cc-pvtz', properties = ['dipole'])
--------------------------------------------------------------------------

  Memory set to  29.802 GiB by Python driver.
    SCF Algorithm Type (re)set to DF.

*** tstart() called on node57.bme.utexas.edu
*** at Mon Nov  2 17:12:47 2020

   => Loading Basis Set <=

    Name: AUG-CC-PVTZ
    Role: ORBITAL
    Keyword: BASIS
    atoms 1-2  entry O          line   327 file /home/xy3866/psi4conda/share/psi4/basis/aug-cc-pvtz.gbs 
    atoms 3-8  entry C          line   235 file /home/xy3866/psi4conda/share/psi4/basis/aug-cc-pvtz.gbs 
    atoms 9-18 entry H          line    36 file /home/xy3866/psi4conda/share/psi4/basis/aug-cc-pvtz.gbs 


         ---------------------------------------------------------
                                   SCF
               by Justin Turney, Rob Parrish, Andy Simmonett
                          and Daniel G. A. Smith
                              RHF Reference
                        8 Threads,  30517 MiB Core
         ---------------------------------------------------------

  ==> Geometry <==

    Molecular point group: c1
    Full point group: C1

    Geometry (in Angstrom), charge = 0, multiplicity = 1:

       Center              X                  Y                   Z               Mass       
    ------------   -----------------  -----------------  -----------------  -----------------
         O            3.169791441859     0.354779656341     0.001743865885    15.994914619570
         O            1.723924641859    -1.354452143659    -0.203661534115    15.994914619570
         C           -2.915094358141     0.357527856341    -0.499909534115    12.000000000000
         C           -1.494796358141     0.835150856341    -0.405137534115    12.000000000000
         C            0.823285441859     0.795747956341     0.411172165885    12.000000000000
         C           -0.523332358141     0.272041856341     0.328752465885    12.000000000000
         C           -3.246391358141    -0.872564143659     0.338463465885    12.000000000000
         C            1.912000641859    -0.175808143659     0.029475465885    12.000000000000
         H           -3.581301358141     1.184850856341    -0.214796534115     1.007825032230
         H           -3.146296358141     0.153076856341    -1.557644534115     1.007825032230
         H           -1.254049358141     1.728871856341    -0.991017534115     1.007825032230
         H            0.980049641859     1.723182856341    -0.218864534115     1.007825032230
         H            1.098514641859     1.162965856341     1.435238465885     1.007825032230
         H           -0.711815358141    -0.634572143659     0.905620465885     1.007825032230
         H           -4.294381358141    -1.152671143659     0.214646465885     1.007825032230
         H           -2.630138358141    -1.727067143659     0.041129465885     1.007825032230
         H           -3.072671358141    -0.679920143659     1.402408465885     1.007825032230
         H            3.769948641859    -0.325412143659    -0.227041534115     1.007825032230

  Running in c1 symmetry.

  Rotational constants: A =      0.18317  B =      0.02745  C =      0.02519 [cm^-1]
  Rotational constants: A =   5491.20493  B =    822.97559  C =    755.31190 [MHz]
  Nuclear repulsion =  355.696909677131885

  Charge       = 0
  Multiplicity = 1
  Electrons    = 62
  Nalpha       = 31
  Nbeta        = 31

  ==> Algorithm <==

  SCF Algorithm Type is DF.
  DIIS enabled.
  MOM disabled.
  Fractional occupation disabled.
  Guess Type is SAD.
  Energy threshold   = 1.00e-10
  Density threshold  = 1.00e-10
  Integral threshold = 0.00e+00

  ==> Primary Basis <==

  Basis Set: AUG-CC-PVTZ
    Blend: AUG-CC-PVTZ
    Number of shells: 202
    Number of basis function: 598
    Number of Cartesian functions: 690
    Spherical Harmonics?: true
    Max angular momentum: 3

   => Loading Basis Set <=

    Name: (AUG-CC-PVTZ AUX)
    Role: JKFIT
    Keyword: DF_BASIS_SCF
    atoms 1-2  entry O          line   286 file /home/xy3866/psi4conda/share/psi4/basis/aug-cc-pvtz-jkfit.gbs 
    atoms 3-8  entry C          line   162 file /home/xy3866/psi4conda/share/psi4/basis/aug-cc-pvtz-jkfit.gbs 
    atoms 9-18 entry H          line    70 file /home/xy3866/psi4conda/share/psi4/basis/aug-cc-pvtz-jkfit.gbs 

  ==> Pre-Iterations <==

   -------------------------------------------------------
    Irrep   Nso     Nmo     Nalpha   Nbeta   Ndocc  Nsocc
   -------------------------------------------------------
     A        598     598       0       0       0       0
   -------------------------------------------------------
    Total     598     598      31      31      31       0
   -------------------------------------------------------

  ==> Integral Setup <==

  DFHelper Memory: AOs need 3.273 GiB; user supplied 22.352 GiB. Using in-core AOs.

  ==> MemDFJK: Density-Fitted J/K Matrices <==

    J tasked:                   Yes
    K tasked:                   Yes
    wK tasked:                   No
    OpenMP threads:               8
    Memory [MiB]:             22888
    Algorithm:                 Disk
    Schwarz Cutoff:           1E-12
    Mask sparsity (%):       7.9949
    Fitting Condition:        1E-10

   => Auxiliary Basis Set <=

  Basis Set: (AUG-CC-PVTZ AUX)
    Blend: AUG-CC-PVTZ-JKFIT
    Number of shells: 380
    Number of basis function: 1292
    Number of Cartesian functions: 1598
    Spherical Harmonics?: true
    Max angular momentum: 4

  Minimum eigenvalue in the overlap matrix is 2.4660160965E-06.
  Using Symmetric Orthogonalization.

  SCF Guess: Superposition of Atomic Densities via on-the-fly atomic UHF.

  ==> Iterations <==

                           Total Energy        Delta E     RMS |[F,P]|

   @DF-RHF iter SAD:  -381.85087759241026   -3.81851e+02   0.00000e+00 
   @DF-RHF iter   1:  -382.56855662940325   -7.17679e-01   1.32018e-03 DIIS
   @DF-RHF iter   2:  -382.81806680333045   -2.49510e-01   7.52194e-04 DIIS
   @DF-RHF iter   3:  -382.89476403824335   -7.66972e-02   1.43969e-04 DIIS
   @DF-RHF iter   4:  -382.89933697562049   -4.57294e-03   6.87080e-05 DIIS
   @DF-RHF iter   5:  -382.90027553107035   -9.38555e-04   1.22561e-05 DIIS
   @DF-RHF iter   6:  -382.90032972386280   -5.41928e-05   5.62332e-06 DIIS
   @DF-RHF iter   7:  -382.90033978828836   -1.00644e-05   2.02431e-06 DIIS
   @DF-RHF iter   8:  -382.90034180219664   -2.01391e-06   8.41899e-07 DIIS
   @DF-RHF iter   9:  -382.90034216057268   -3.58376e-07   2.63150e-07 DIIS
   @DF-RHF iter  10:  -382.90034219342590   -3.28532e-08   7.63136e-08 DIIS
   @DF-RHF iter  11:  -382.90034219560982   -2.18392e-09   2.58342e-08 DIIS
   @DF-RHF iter  12:  -382.90034219580565   -1.95826e-10   8.36368e-09 DIIS
   @DF-RHF iter  13:  -382.90034219582810   -2.24532e-11   1.84879e-09 DIIS
   @DF-RHF iter  14:  -382.90034219583043   -2.33058e-12   7.05507e-10 DIIS
   @DF-RHF iter  15:  -382.90034219583055   -1.13687e-13   1.99263e-10 DIIS
   @DF-RHF iter  16:  -382.90034219583055    0.00000e+00   7.55147e-11 DIIS
  Energy and wave function converged.


  ==> Post-Iterations <==

    Orbital Energies [Eh]
    ---------------------

    Doubly Occupied:                                                      

       1A    -20.610361     2A    -20.548646     3A    -11.390161  
       4A    -11.258890     5A    -11.237810     6A    -11.231279  
       7A    -11.231021     8A    -11.215527     9A     -1.463215  
      10A     -1.358247    11A     -1.109290    12A     -1.048243  
      13A     -0.961212    14A     -0.875377    15A     -0.815296  
      16A     -0.740599    17A     -0.703443    18A     -0.685352  
      19A     -0.652926    20A     -0.630185    21A     -0.613119  
      22A     -0.600474    23A     -0.581055    24A     -0.554741  
      25A     -0.524888    26A     -0.499088    27A     -0.492858  
      28A     -0.484864    29A     -0.479140    30A     -0.453562  
      31A     -0.354621  

    Virtual:                                                              

      32A      0.028038    33A      0.032159    34A      0.036380  
      35A      0.039100    36A      0.048311    37A      0.053210  
      38A      0.055255    39A      0.065963    40A      0.070706  
      41A      0.075618    42A      0.089812    43A      0.102535  
      44A      0.106828    45A      0.111929    46A      0.115499  
      47A      0.119146    48A      0.124799    49A      0.128903  
      50A      0.129733    51A      0.135166    52A      0.142224  
      53A      0.148383    54A      0.149530    55A      0.153602  
      56A      0.156274    57A      0.163047    58A      0.166386  
      59A      0.171874    60A      0.178018    61A      0.179798  
      62A      0.184535    63A      0.199329    64A      0.204533  
      65A      0.214746    66A      0.222027    67A      0.227514  
      68A      0.234002    69A      0.238145    70A      0.246380  
      71A      0.252668    72A      0.260965    73A      0.266127  
      74A      0.267568    75A      0.278594    76A      0.282255  
      77A      0.288108    78A      0.294163    79A      0.300406  
      80A      0.303656    81A      0.315955    82A      0.321933  
      83A      0.328325    84A      0.332413    85A      0.338899  
      86A      0.345087    87A      0.346390    88A      0.350605  
      89A      0.358130    90A      0.362875    91A      0.368948  
      92A      0.373988    93A      0.374667    94A      0.378373  
      95A      0.383493    96A      0.387004    97A      0.390393  
      98A      0.399310    99A      0.404053   100A      0.410764  
     101A      0.411693   102A      0.420688   103A      0.427055  
     104A      0.436782   105A      0.439850   106A      0.444797  
     107A      0.449488   108A      0.451397   109A      0.454469  
     110A      0.458637   111A      0.466226   112A      0.473482  
     113A      0.481211   114A      0.484001   115A      0.489410  
     116A      0.494028   117A      0.499355   118A      0.504571  
     119A      0.513810   120A      0.516229   121A      0.521494  
     122A      0.527039   123A      0.533641   124A      0.535486  
     125A      0.546164   126A      0.550034   127A      0.557681  
     128A      0.559107   129A      0.564005   130A      0.571413  
     131A      0.577435   132A      0.585970   133A      0.586879  
     134A      0.600394   135A      0.602363   136A      0.614077  
     137A      0.621908   138A      0.629353   139A      0.636938  
     140A      0.643954   141A      0.645109   142A      0.664513  
     143A      0.674692   144A      0.678091   145A      0.687421  
     146A      0.691784   147A      0.705692   148A      0.712698  
     149A      0.726731   150A      0.738333   151A      0.742710  
     152A      0.749620   153A      0.766161   154A      0.771243  
     155A      0.780936   156A      0.794811   157A      0.795609  
     158A      0.805087   159A      0.814887   160A      0.817146  
     161A      0.827829   162A      0.838319   163A      0.842077  
     164A      0.847052   165A      0.856394   166A      0.858326  
     167A      0.867526   168A      0.873017   169A      0.877968  
     170A      0.889332   171A      0.892064   172A      0.897266  
     173A      0.900164   174A      0.906935   175A      0.912098  
     176A      0.914589   177A      0.920097   178A      0.934770  
     179A      0.939442   180A      0.944912   181A      0.953307  
     182A      0.962898   183A      0.970002   184A      0.972639  
     185A      0.982155   186A      0.985414   187A      0.993942  
     188A      0.998136   189A      1.000677   190A      1.012331  
     191A      1.022080   192A      1.026306   193A      1.029874  
     194A      1.036954   195A      1.040789   196A      1.048342  
     197A      1.058141   198A      1.062065   199A      1.066921  
     200A      1.072383   201A      1.078302   202A      1.088844  
     203A      1.094058   204A      1.100906   205A      1.106628  
     206A      1.109197   207A      1.114174   208A      1.128272  
     209A      1.133240   210A      1.136645   211A      1.142300  
     212A      1.157272   213A      1.160798   214A      1.170549  
     215A      1.173814   216A      1.185824   217A      1.190713  
     218A      1.202654   219A      1.208247   220A      1.220013  
     221A      1.223452   222A      1.227517   223A      1.231978  
     224A      1.241628   225A      1.252314   226A      1.255343  
     227A      1.258573   228A      1.269787   229A      1.270376  
     230A      1.290053   231A      1.292978   232A      1.310073  
     233A      1.314306   234A      1.324469   235A      1.325601  
     236A      1.336521   237A      1.355635   238A      1.364259  
     239A      1.375299   240A      1.380436   241A      1.391762  
     242A      1.408499   243A      1.411496   244A      1.422358  
     245A      1.432452   246A      1.439167   247A      1.441931  
     248A      1.464049   249A      1.467490   250A      1.474071  
     251A      1.488013   252A      1.495593   253A      1.501677  
     254A      1.511215   255A      1.522933   256A      1.534906  
     257A      1.543973   258A      1.551921   259A      1.558284  
     260A      1.570365   261A      1.587334   262A      1.599077  
     263A      1.609249   264A      1.620561   265A      1.624253  
     266A      1.631386   267A      1.633378   268A      1.645585  
     269A      1.671588   270A      1.681025   271A      1.686261  
     272A      1.691807   273A      1.696236   274A      1.717584  
     275A      1.720559   276A      1.724563   277A      1.733464  
     278A      1.738327   279A      1.747467   280A      1.748798  
     281A      1.763561   282A      1.778421   283A      1.782909  
     284A      1.790912   285A      1.802965   286A      1.810565  
     287A      1.812478   288A      1.821385   289A      1.825640  
     290A      1.845683   291A      1.851540   292A      1.862350  
     293A      1.878283   294A      1.883160   295A      1.891168  
     296A      1.896381   297A      1.910588   298A      1.913860  
     299A      1.929462   300A      1.940428   301A      1.949074  
     302A      1.954026   303A      1.961742   304A      1.964371  
     305A      1.998624   306A      2.005428   307A      2.013149  
     308A      2.020509   309A      2.024954   310A      2.041763  
     311A      2.044121   312A      2.064195   313A      2.076602  
     314A      2.089588   315A      2.102033   316A      2.121456  
     317A      2.124493   318A      2.148148   319A      2.165611  
     320A      2.192371   321A      2.195662   322A      2.202573  
     323A      2.219327   324A      2.239771   325A      2.242846  
     326A      2.251609   327A      2.259027   328A      2.267222  
     329A      2.285899   330A      2.290135   331A      2.305347  
     332A      2.315432   333A      2.329703   334A      2.333098  
     335A      2.345941   336A      2.360833   337A      2.373311  
     338A      2.393915   339A      2.402792   340A      2.425714  
     341A      2.435729   342A      2.453520   343A      2.456048  
     344A      2.466942   345A      2.474498   346A      2.506627  
     347A      2.510568   348A      2.527940   349A      2.547191  
     350A      2.557481   351A      2.558363   352A      2.588738  
     353A      2.598262   354A      2.630627   355A      2.640190  
     356A      2.646632   357A      2.665435   358A      2.689377  
     359A      2.713214   360A      2.751599   361A      2.770238  
     362A      2.805910   363A      2.827534   364A      2.845958  
     365A      2.853628   366A      2.886618   367A      2.923080  
     368A      2.932558   369A      2.950575   370A      2.999957  
     371A      3.007421   372A      3.043880   373A      3.065749  
     374A      3.098609   375A      3.110264   376A      3.114649  
     377A      3.177234   378A      3.200584   379A      3.244103  
     380A      3.314309   381A      3.332963   382A      3.354354  
     383A      3.378117   384A      3.378387   385A      3.406138  
     386A      3.419738   387A      3.429404   388A      3.442620  
     389A      3.452713   390A      3.465683   391A      3.477123  
     392A      3.493937   393A      3.498001   394A      3.527447  
     395A      3.537321   396A      3.551597   397A      3.589433  
     398A      3.596672   399A      3.612384   400A      3.629591  
     401A      3.634450   402A      3.637225   403A      3.652524  
     404A      3.665529   405A      3.672196   406A      3.687211  
     407A      3.703305   408A      3.721478   409A      3.731910  
     410A      3.738476   411A      3.751870   412A      3.753211  
     413A      3.768437   414A      3.780613   415A      3.793255  
     416A      3.801782   417A      3.808991   418A      3.820523  
     419A      3.825683   420A      3.841702   421A      3.854081  
     422A      3.869866   423A      3.882442   424A      3.906643  
     425A      3.914364   426A      3.928030   427A      3.934387  
     428A      3.959287   429A      3.961854   430A      3.984606  
     431A      4.008744   432A      4.021835   433A      4.024658  
     434A      4.037798   435A      4.042585   436A      4.059365  
     437A      4.071861   438A      4.085732   439A      4.093436  
     440A      4.099609   441A      4.112233   442A      4.119498  
     443A      4.142315   444A      4.165846   445A      4.184760  
     446A      4.191273   447A      4.201496   448A      4.213842  
     449A      4.227544   450A      4.252065   451A      4.254593  
     452A      4.273731   453A      4.279143   454A      4.283086  
     455A      4.308527   456A      4.315685   457A      4.329768  
     458A      4.341099   459A      4.362118   460A      4.370741  
     461A      4.391684   462A      4.416596   463A      4.427435  
     464A      4.450032   465A      4.464411   466A      4.483268  
     467A      4.492255   468A      4.511265   469A      4.523682  
     470A      4.539474   471A      4.545129   472A      4.558860  
     473A      4.578964   474A      4.587976   475A      4.594729  
     476A      4.626216   477A      4.637964   478A      4.660084  
     479A      4.679938   480A      4.693884   481A      4.715439  
     482A      4.729583   483A      4.754058   484A      4.777261  
     485A      4.800956   486A      4.803832   487A      4.830353  
     488A      4.837357   489A      4.845880   490A      4.864458  
     491A      4.877114   492A      4.885841   493A      4.890033  
     494A      4.914447   495A      4.930490   496A      4.946303  
     497A      4.968364   498A      4.977297   499A      5.003261  
     500A      5.019575   501A      5.042352   502A      5.077426  
     503A      5.097995   504A      5.120595   505A      5.133105  
     506A      5.147342   507A      5.162436   508A      5.174087  
     509A      5.195799   510A      5.205512   511A      5.214146  
     512A      5.224322   513A      5.256174   514A      5.269215  
     515A      5.272213   516A      5.297665   517A      5.303104  
     518A      5.338163   519A      5.343932   520A      5.366279  
     521A      5.389506   522A      5.391899   523A      5.406572  
     524A      5.458945   525A      5.485642   526A      5.488277  
     527A      5.499989   528A      5.514276   529A      5.530287  
     530A      5.544939   531A      5.551460   532A      5.598242  
     533A      5.621400   534A      5.646938   535A      5.670082  
     536A      5.693268   537A      5.711676   538A      5.736515  
     539A      5.776541   540A      5.799782   541A      5.856325  
     542A      5.876465   543A      5.906562   544A      5.976570  
     545A      6.000868   546A      6.022682   547A      6.056611  
     548A      6.100794   549A      6.123476   550A      6.176398  
     551A      6.195692   552A      6.217437   553A      6.235774  
     554A      6.294274   555A      6.368491   556A      6.428712  
     557A      6.505491   558A      6.566585   559A      6.610373  
     560A      6.688329   561A      6.704860   562A      6.735833  
     563A      6.737874   564A      6.798454   565A      6.811990  
     566A      6.848597   567A      6.876973   568A      6.885140  
     569A      6.898105   570A      6.907907   571A      6.934339  
     572A      7.026224   573A      7.076796   574A      7.234094  
     575A      7.301956   576A      7.337229   577A      7.352007  
     578A      7.378966   579A      7.395015   580A      7.411628  
     581A      7.565793   582A      7.571596   583A      7.640695  
     584A      7.711998   585A      7.746041   586A      7.890305  
     587A      7.996421   588A      8.058609   589A      8.266327  
     590A      8.637094   591A     15.636244   592A     16.046710  
     593A     17.056239   594A     17.473608   595A     17.691411  
     596A     18.920968   597A     19.430745   598A     20.557297  

    Final Occupation by Irrep:
              A 
    DOCC [    31 ]

  @DF-RHF Final Energy:  -382.90034219583055

   => Energetics <=

    Nuclear Repulsion Energy =            355.6969096771318846
    One-Electron Energy =               -1226.3835246025955712
    Two-Electron Energy =                 487.7862727296331400
    Total Energy =                       -382.9003421958305466

Computation Completed

*** tstop() called on node57.bme.utexas.edu at Mon Nov  2 17:13:37 2020
Module time:
	user time   =     206.90 seconds =       3.45 minutes
	system time =      26.06 seconds =       0.43 minutes
	total time  =         50 seconds =       0.83 minutes
Total time:
	user time   =     206.90 seconds =       3.45 minutes
	system time =      26.06 seconds =       0.43 minutes
	total time  =         50 seconds =       0.83 minutes
   => Loading Basis Set <=

    Name: (AUG-CC-PVTZ AUX)
    Role: RIFIT
    Keyword: DF_BASIS_MP2
    atoms 1-2  entry O          line   264 file /home/xy3866/psi4conda/share/psi4/basis/aug-cc-pvtz-ri.gbs 
    atoms 3-8  entry C          line   148 file /home/xy3866/psi4conda/share/psi4/basis/aug-cc-pvtz-ri.gbs 
    atoms 9-18 entry H          line    30 file /home/xy3866/psi4conda/share/psi4/basis/aug-cc-pvtz-ri.gbs 


*** tstart() called on node57.bme.utexas.edu
*** at Mon Nov  2 17:13:38 2020


  //>>>>>>>>>>>>>>>>>>>>>>>>>>>>>>>>>>>//
  //               DFMP2               //
  //<<<<<<<<<<<<<<<<<<<<<<<<<<<<<<<<<<<//

	 --------------------------------------------------------
	                          DF-MP2                         
	      2nd-Order Density-Fitted Moller-Plesset Theory     
	              RMP2 Wavefunction,   8 Threads             
	                                                         
	        Rob Parrish, Justin Turney, Andy Simmonett,      
	           Ed Hohenstein, and C. David Sherrill          
	 --------------------------------------------------------

   => Auxiliary Basis Set <=

  Basis Set: (AUG-CC-PVTZ AUX)
    Blend: AUG-CC-PVTZ-RI
    Number of shells: 364
    Number of basis function: 1308
    Number of Cartesian functions: 1638
    Spherical Harmonics?: true
    Max angular momentum: 4

	 --------------------------------------------------------
	                 NBF =   598, NAUX =  1308
	 --------------------------------------------------------
	   CLASS    FOCC     OCC    AOCC    AVIR     VIR    FVIR
	   PAIRS       0      31      31     567     567       0
	 --------------------------------------------------------

  DFHelper Memory: AOs need 3.273 GiB; user supplied 22.352 GiB. Using in-core AOs.


         ------------------------------------------------------------
                                     CPHF                           
                                  Rob Parrish                       
         ------------------------------------------------------------

  ==> Geometry <==

    Molecular point group: c1
    Full point group: C1

    Geometry (in Angstrom), charge = 0, multiplicity = 1:

       Center              X                  Y                   Z               Mass       
    ------------   -----------------  -----------------  -----------------  -----------------
         O            3.169791441859     0.354779656341     0.001743865885    15.994914619570
         O            1.723924641859    -1.354452143659    -0.203661534115    15.994914619570
         C           -2.915094358141     0.357527856341    -0.499909534115    12.000000000000
         C           -1.494796358141     0.835150856341    -0.405137534115    12.000000000000
         C            0.823285441859     0.795747956341     0.411172165885    12.000000000000
         C           -0.523332358141     0.272041856341     0.328752465885    12.000000000000
         C           -3.246391358141    -0.872564143659     0.338463465885    12.000000000000
         C            1.912000641859    -0.175808143659     0.029475465885    12.000000000000
         H           -3.581301358141     1.184850856341    -0.214796534115     1.007825032230
         H           -3.146296358141     0.153076856341    -1.557644534115     1.007825032230
         H           -1.254049358141     1.728871856341    -0.991017534115     1.007825032230
         H            0.980049641859     1.723182856341    -0.218864534115     1.007825032230
         H            1.098514641859     1.162965856341     1.435238465885     1.007825032230
         H           -0.711815358141    -0.634572143659     0.905620465885     1.007825032230
         H           -4.294381358141    -1.152671143659     0.214646465885     1.007825032230
         H           -2.630138358141    -1.727067143659     0.041129465885     1.007825032230
         H           -3.072671358141    -0.679920143659     1.402408465885     1.007825032230
         H            3.769948641859    -0.325412143659    -0.227041534115     1.007825032230

  Nuclear repulsion =  355.696909677131885
  Reference energy  = -382.900342195830547

  ==> Basis Set <==

  Basis Set: AUG-CC-PVTZ
    Blend: AUG-CC-PVTZ
    Number of shells: 202
    Number of basis function: 598
    Number of Cartesian functions: 690
    Spherical Harmonics?: true
    Max angular momentum: 3

  ==> CGRSolver (by Rob Parrish) <==

   Number of roots    =         1
   Preconditioning    =    JACOBI
   Convergence cutoff =     1E-06
   Maximum iterations =       100

  ==> CPHFRHamiltonian (by Rob Parrish) <== 

  ==> MemDFJK: Density-Fitted J/K Matrices <==

    J tasked:                   Yes
    K tasked:                   Yes
    wK tasked:                   No
    OpenMP threads:               8
    Memory [MiB]:             22888
    Algorithm:                 Disk
    Schwarz Cutoff:           1E-12
    Mask sparsity (%):       7.9949
    Fitting Condition:        1E-10

   => Auxiliary Basis Set <=

  Basis Set: (AUG-CC-PVTZ AUX)
    Blend: AUG-CC-PVTZ-JKFIT
    Number of shells: 380
    Number of basis function: 1292
    Number of Cartesian functions: 1598
    Spherical Harmonics?: true
    Max angular momentum: 4

  ==> CPHF Iterations <==

  => Iterations <=

             Iter  Converged  Remaining    Residual
  CGR           1          0          1   1.072E-01
  CGR           2          0          1   3.064E-02
  CGR           3          0          1   1.074E-02
  CGR           4          0          1   3.236E-03
  CGR           5          0          1   1.277E-03
  CGR           6          0          1   3.327E-04
  CGR           7          0          1   1.112E-04
  CGR           8          0          1   3.882E-05
  CGR           9          0          1   1.478E-05
  CGR          10          0          1   5.678E-06
  CGR          11          0          1   1.884E-06
  CGR          12          1          0   5.176E-07

    CGRSolver converged.

	-----------------------------------------------------------
	 ==================> DF-MP2 Energies <==================== 
	-----------------------------------------------------------
	 Reference Energy          =    -382.9003421958305466 [Eh]
	 Singles Energy            =      -0.0000000000000000 [Eh]
	 Same-Spin Energy          =      -0.3827869379842708 [Eh]
	 Opposite-Spin Energy      =      -1.2531840806878893 [Eh]
	 Correlation Energy        =      -1.6359710186721601 [Eh]
	 Total Energy              =    -384.5363132145026839 [Eh]
	-----------------------------------------------------------
	 ================> DF-SCS-MP2 Energies <================== 
	-----------------------------------------------------------
	 SCS Same-Spin Scale       =       0.3333333333333333 [-]
	 SCS Opposite-Spin Scale   =       1.2000000000000000 [-]
	 SCS Same-Spin Energy      =      -0.1275956459947569 [Eh]
	 SCS Opposite-Spin Energy  =      -1.5038208968254672 [Eh]
	 SCS Correlation Energy    =      -1.6314165428202241 [Eh]
	 SCS Total Energy          =    -384.5317587386507512 [Eh]
	-----------------------------------------------------------



Properties will be evaluated at  -0.000000,   0.000000,  -0.000000 [a0]

Properties computed using the MP2 density matrix

  Nuclear Dipole Moment: [e a0]
     X:   -12.0156      Y:     1.3389      Z:     0.7393

  Electronic Dipole Moment: [e a0]
     X:    11.8926      Y:    -0.7644      Z:    -0.6519

  Dipole Moment: [e a0]
     X:    -0.1230      Y:     0.5745      Z:     0.0874     Total:     0.5940

  Dipole Moment: [D]
     X:    -0.3126      Y:     1.4603      Z:     0.2222     Total:     1.5098


*** tstop() called on node57.bme.utexas.edu at Mon Nov  2 17:15:26 2020
Module time:
	user time   =     618.14 seconds =      10.30 minutes
	system time =      30.22 seconds =       0.50 minutes
	total time  =        108 seconds =       1.80 minutes
Total time:
	user time   =     826.36 seconds =      13.77 minutes
	system time =      56.33 seconds =       0.94 minutes
	total time  =        159 seconds =       2.65 minutes

    Psi4 stopped on: Monday, 02 November 2020 05:15PM
    Psi4 wall time for execution: 0:02:39.41

*** Psi4 exiting successfully. Buy a developer a beer!
