654                                                                     
Freq      RMP2-FC                                                     6-31G(d)            
Number of atoms                            I               20
Info1-9                                    I   N=           9
          32          30        1002           0           0         100
           6           2           1
Charge                                     I                0
Multiplicity                               I                1
Number of electrons                        I               82
Number of alpha electrons                  I               41
Number of beta electrons                   I               41
Number of basis functions                  I              161
Number of independent functions            I              161
Number of point charges in /Mol/           I                0
Number of translation vectors              I                0
Atomic numbers                             I   N=          20
          15           8           8           8           8           6
           6           6           6           1           1           1
           1           1           1           1           1           1
           1           1
Nuclear charges                            R   N=          20
  1.50000000E+01  8.00000000E+00  8.00000000E+00  8.00000000E+00  8.00000000E+00
  6.00000000E+00  6.00000000E+00  6.00000000E+00  6.00000000E+00  1.00000000E+00
  1.00000000E+00  1.00000000E+00  1.00000000E+00  1.00000000E+00  1.00000000E+00
  1.00000000E+00  1.00000000E+00  1.00000000E+00  1.00000000E+00  1.00000000E+00
Current cartesian coordinates              R   N=          60
 -3.66561540E-02 -1.80908706E+00 -2.07141408E-01  2.29835007E+00 -5.08642655E-02
 -1.02329106E+00 -2.10821900E+00  1.15977504E-01  9.55029256E-01  9.75693151E-01
 -3.13685973E+00  2.35515117E+00 -9.37462798E-01 -3.51466982E+00 -2.23031937E+00
  3.47343957E+00  1.58613606E+00  8.43384928E-01 -3.61691602E+00  1.50232406E+00
 -8.79342590E-01  5.35604764E+00  3.22084427E+00 -5.47722316E-01 -5.37647246E+00
  3.19823025E+00  5.96011545E-01  2.00766708E+00  2.71682923E+00  1.76446879E+00
  4.38862848E+00  4.00957947E-01  2.26644702E+00 -2.35172606E+00  2.59757645E+00
 -2.09815387E+00 -4.64538425E+00  1.45415349E-01 -2.04866307E+00  6.31528210E+00
  4.47789298E+00  7.83833424E-01  6.76871492E+00  2.04544018E+00 -1.48512173E+00
  4.40079371E+00  4.36783924E+00 -1.97244022E+00 -6.56741988E+00  4.27920542E+00
 -7.02337783E-01 -6.59121203E+00  2.07056516E+00  1.82478028E+00 -4.30029823E+00
  4.51827513E+00  1.76149262E+00  2.81312699E-01 -4.83756853E+00  2.48626628E+00
Force Field                                I                0
Int Atom Types                             I   N=          20
           0           0           0           0           0           0
           0           0           0           0           0           0
           0           0           0           0           0           0
           0           0
MM charges                                 R   N=          20
  0.00000000E+00  0.00000000E+00  0.00000000E+00  0.00000000E+00  0.00000000E+00
  0.00000000E+00  0.00000000E+00  0.00000000E+00  0.00000000E+00  0.00000000E+00
  0.00000000E+00  0.00000000E+00  0.00000000E+00  0.00000000E+00  0.00000000E+00
  0.00000000E+00  0.00000000E+00  0.00000000E+00  0.00000000E+00  0.00000000E+00
Integer atomic weights                     I   N=          20
          31          16          16          16          16          12
          12          12          12           1           1           1
           1           1           1           1           1           1
           1           1
Real atomic weights                        R   N=          20
  3.09737634E+01  1.59949146E+01  1.59949146E+01  1.59949146E+01  1.59949146E+01
  1.20000000E+01  1.20000000E+01  1.20000000E+01  1.20000000E+01  1.00782504E+00
  1.00782504E+00  1.00782504E+00  1.00782504E+00  1.00782504E+00  1.00782504E+00
  1.00782504E+00  1.00782504E+00  1.00782504E+00  1.00782504E+00  1.00782504E+00
Atom fragment info                         I   N=          20
           0           0           0           0           0           0
           0           0           0           0           0           0
           0           0           0           0           0           0
           0           0
Atom residue num                           I   N=          20
           0           0           0           0           0           0
           0           0           0           0           0           0
           0           0           0           0           0           0
           0           0
Nuclear spins                              I   N=          20
           1           0           0           0           0           0
           0           0           0           1           1           1
           1           1           1           1           1           1
           1           1
Nuclear ZEff                               R   N=          20
 -1.29400000E+01 -5.60000000E+00 -5.60000000E+00 -5.60000000E+00 -5.60000000E+00
 -3.60000000E+00 -3.60000000E+00 -3.60000000E+00 -3.60000000E+00 -1.00000000E+00
 -1.00000000E+00 -1.00000000E+00 -1.00000000E+00 -1.00000000E+00 -1.00000000E+00
 -1.00000000E+00 -1.00000000E+00 -1.00000000E+00 -1.00000000E+00 -1.00000000E+00
Nuclear QMom                               R   N=          20
  0.00000000E+00  0.00000000E+00  0.00000000E+00  0.00000000E+00  0.00000000E+00
  0.00000000E+00  0.00000000E+00  0.00000000E+00  0.00000000E+00  0.00000000E+00
  0.00000000E+00  0.00000000E+00  0.00000000E+00  0.00000000E+00  0.00000000E+00
  0.00000000E+00  0.00000000E+00  0.00000000E+00  0.00000000E+00  0.00000000E+00
Nuclear GFac                               R   N=          20
  1.13160000E+00  0.00000000E+00  0.00000000E+00  0.00000000E+00  0.00000000E+00
  0.00000000E+00  0.00000000E+00  0.00000000E+00  0.00000000E+00  2.79284600E+00
  2.79284600E+00  2.79284600E+00  2.79284600E+00  2.79284600E+00  2.79284600E+00
  2.79284600E+00  2.79284600E+00  2.79284600E+00  2.79284600E+00  2.79284600E+00
MicOpt                                     I   N=          20
          -1          -1          -1          -1          -1          -1
          -1          -1          -1          -1          -1          -1
          -1          -1          -1          -1          -1          -1
          -1          -1
Number of contracted shells                I               59
Number of primitive shells                 I              149
Pure/Cartesian d shells                    I                1
Pure/Cartesian f shells                    I                0
Highest angular momentum                   I                2
Largest degree of contraction              I                6
Shell types                                I   N=          59
           0          -1          -1          -1           2           0
          -1          -1           2           0          -1          -1
           2           0          -1          -1           2           0
          -1          -1           2           0          -1          -1
           2           0          -1          -1           2           0
          -1          -1           2           0          -1          -1
           2           0           0           0           0           0
           0           0           0           0           0           0
           0           0           0           0           0           0
           0           0           0           0           0
Number of primitives per shell             I   N=          59
           6           6           3           1           1           6
           3           1           1           6           3           1
           1           6           3           1           1           6
           3           1           1           6           3           1
           1           6           3           1           1           6
           3           1           1           6           3           1
           1           3           1           3           1           3
           1           3           1           3           1           3
           1           3           1           3           1           3
           1           3           1           3           1
Shell to atom map                          I   N=          59
           1           1           1           1           1           2
           2           2           2           3           3           3
           3           4           4           4           4           5
           5           5           5           6           6           6
           6           7           7           7           7           8
           8           8           8           9           9           9
           9          10          10          11          11          12
          12          13          13          14          14          15
          15          16          16          17          17          18
          18          19          19          20          20
Primitive exponents                        R   N=         149
  1.94133000E+04  2.90942000E+03  6.61364000E+02  1.85759000E+02  5.91943000E+01
  2.00310000E+01  3.39478000E+02  8.10101000E+01  2.58780000E+01  9.45221000E+00
  3.66566000E+00  1.46746000E+00  2.15623000E+00  7.48997000E-01  2.83145000E-01
  9.98317000E-02  5.50000000E-01  5.48467166E+03  8.25234946E+02  1.88046958E+02
  5.29645000E+01  1.68975704E+01  5.79963534E+00  1.55396162E+01  3.59993359E+00
  1.01376175E+00  2.70005823E-01  8.00000000E-01  5.48467166E+03  8.25234946E+02
  1.88046958E+02  5.29645000E+01  1.68975704E+01  5.79963534E+00  1.55396162E+01
  3.59993359E+00  1.01376175E+00  2.70005823E-01  8.00000000E-01  5.48467166E+03
  8.25234946E+02  1.88046958E+02  5.29645000E+01  1.68975704E+01  5.79963534E+00
  1.55396162E+01  3.59993359E+00  1.01376175E+00  2.70005823E-01  8.00000000E-01
  5.48467166E+03  8.25234946E+02  1.88046958E+02  5.29645000E+01  1.68975704E+01
  5.79963534E+00  1.55396162E+01  3.59993359E+00  1.01376175E+00  2.70005823E-01
  8.00000000E-01  3.04752488E+03  4.57369518E+02  1.03948685E+02  2.92101553E+01
  9.28666296E+00  3.16392696E+00  7.86827235E+00  1.88128854E+00  5.44249258E-01
  1.68714478E-01  8.00000000E-01  3.04752488E+03  4.57369518E+02  1.03948685E+02
  2.92101553E+01  9.28666296E+00  3.16392696E+00  7.86827235E+00  1.88128854E+00
  5.44249258E-01  1.68714478E-01  8.00000000E-01  3.04752488E+03  4.57369518E+02
  1.03948685E+02  2.92101553E+01  9.28666296E+00  3.16392696E+00  7.86827235E+00
  1.88128854E+00  5.44249258E-01  1.68714478E-01  8.00000000E-01  3.04752488E+03
  4.57369518E+02  1.03948685E+02  2.92101553E+01  9.28666296E+00  3.16392696E+00
  7.86827235E+00  1.88128854E+00  5.44249258E-01  1.68714478E-01  8.00000000E-01
  1.87311370E+01  2.82539436E+00  6.40121692E-01  1.61277759E-01  1.87311370E+01
  2.82539436E+00  6.40121692E-01  1.61277759E-01  1.87311370E+01  2.82539436E+00
  6.40121692E-01  1.61277759E-01  1.87311370E+01  2.82539436E+00  6.40121692E-01
  1.61277759E-01  1.87311370E+01  2.82539436E+00  6.40121692E-01  1.61277759E-01
  1.87311370E+01  2.82539436E+00  6.40121692E-01  1.61277759E-01  1.87311370E+01
  2.82539436E+00  6.40121692E-01  1.61277759E-01  1.87311370E+01  2.82539436E+00
  6.40121692E-01  1.61277759E-01  1.87311370E+01  2.82539436E+00  6.40121692E-01
  1.61277759E-01  1.87311370E+01  2.82539436E+00  6.40121692E-01  1.61277759E-01
  1.87311370E+01  2.82539436E+00  6.40121692E-01  1.61277759E-01
Contraction coefficients                   R   N=         149
  1.85159892E-03  1.42061917E-02  6.99994593E-02  2.40078860E-01  4.84761718E-01
  3.35199805E-01 -2.78217010E-03 -3.60499014E-02 -1.16631004E-01  9.68328036E-02
  6.14418023E-01  4.03798015E-01 -2.52924114E-01  3.28518447E-02  1.08125476E+00
  1.00000000E+00  1.00000000E+00  1.83107443E-03  1.39501722E-02  6.84450781E-02
  2.32714336E-01  4.70192898E-01  3.58520853E-01 -1.10777550E-01 -1.48026263E-01
  1.13076702E+00  1.00000000E+00  1.00000000E+00  1.83107443E-03  1.39501722E-02
  6.84450781E-02  2.32714336E-01  4.70192898E-01  3.58520853E-01 -1.10777550E-01
 -1.48026263E-01  1.13076702E+00  1.00000000E+00  1.00000000E+00  1.83107443E-03
  1.39501722E-02  6.84450781E-02  2.32714336E-01  4.70192898E-01  3.58520853E-01
 -1.10777550E-01 -1.48026263E-01  1.13076702E+00  1.00000000E+00  1.00000000E+00
  1.83107443E-03  1.39501722E-02  6.84450781E-02  2.32714336E-01  4.70192898E-01
  3.58520853E-01 -1.10777550E-01 -1.48026263E-01  1.13076702E+00  1.00000000E+00
  1.00000000E+00  1.83473713E-03  1.40373228E-02  6.88426223E-02  2.32184443E-01
  4.67941348E-01  3.62311985E-01 -1.19332420E-01 -1.60854152E-01  1.14345644E+00
  1.00000000E+00  1.00000000E+00  1.83473713E-03  1.40373228E-02  6.88426223E-02
  2.32184443E-01  4.67941348E-01  3.62311985E-01 -1.19332420E-01 -1.60854152E-01
  1.14345644E+00  1.00000000E+00  1.00000000E+00  1.83473713E-03  1.40373228E-02
  6.88426223E-02  2.32184443E-01  4.67941348E-01  3.62311985E-01 -1.19332420E-01
 -1.60854152E-01  1.14345644E+00  1.00000000E+00  1.00000000E+00  1.83473713E-03
  1.40373228E-02  6.88426223E-02  2.32184443E-01  4.67941348E-01  3.62311985E-01
 -1.19332420E-01 -1.60854152E-01  1.14345644E+00  1.00000000E+00  1.00000000E+00
  3.34946043E-02  2.34726953E-01  8.13757326E-01  1.00000000E+00  3.34946043E-02
  2.34726953E-01  8.13757326E-01  1.00000000E+00  3.34946043E-02  2.34726953E-01
  8.13757326E-01  1.00000000E+00  3.34946043E-02  2.34726953E-01  8.13757326E-01
  1.00000000E+00  3.34946043E-02  2.34726953E-01  8.13757326E-01  1.00000000E+00
  3.34946043E-02  2.34726953E-01  8.13757326E-01  1.00000000E+00  3.34946043E-02
  2.34726953E-01  8.13757326E-01  1.00000000E+00  3.34946043E-02  2.34726953E-01
  8.13757326E-01  1.00000000E+00  3.34946043E-02  2.34726953E-01  8.13757326E-01
  1.00000000E+00  3.34946043E-02  2.34726953E-01  8.13757326E-01  1.00000000E+00
  3.34946043E-02  2.34726953E-01  8.13757326E-01  1.00000000E+00
P(S=P) Contraction coefficients            R   N=         149
  0.00000000E+00  0.00000000E+00  0.00000000E+00  0.00000000E+00  0.00000000E+00
  0.00000000E+00  4.56461619E-03  3.36935719E-02  1.39754883E-01  3.39361717E-01
  4.50920624E-01  2.38585801E-01 -1.77653127E-02  2.74058196E-01  7.85421563E-01
  1.00000000E+00  0.00000000E+00  0.00000000E+00  0.00000000E+00  0.00000000E+00
  0.00000000E+00  0.00000000E+00  0.00000000E+00  7.08742682E-02  3.39752839E-01
  7.27158577E-01  1.00000000E+00  0.00000000E+00  0.00000000E+00  0.00000000E+00
  0.00000000E+00  0.00000000E+00  0.00000000E+00  0.00000000E+00  7.08742682E-02
  3.39752839E-01  7.27158577E-01  1.00000000E+00  0.00000000E+00  0.00000000E+00
  0.00000000E+00  0.00000000E+00  0.00000000E+00  0.00000000E+00  0.00000000E+00
  7.08742682E-02  3.39752839E-01  7.27158577E-01  1.00000000E+00  0.00000000E+00
  0.00000000E+00  0.00000000E+00  0.00000000E+00  0.00000000E+00  0.00000000E+00
  0.00000000E+00  7.08742682E-02  3.39752839E-01  7.27158577E-01  1.00000000E+00
  0.00000000E+00  0.00000000E+00  0.00000000E+00  0.00000000E+00  0.00000000E+00
  0.00000000E+00  0.00000000E+00  6.89990666E-02  3.16423961E-01  7.44308291E-01
  1.00000000E+00  0.00000000E+00  0.00000000E+00  0.00000000E+00  0.00000000E+00
  0.00000000E+00  0.00000000E+00  0.00000000E+00  6.89990666E-02  3.16423961E-01
  7.44308291E-01  1.00000000E+00  0.00000000E+00  0.00000000E+00  0.00000000E+00
  0.00000000E+00  0.00000000E+00  0.00000000E+00  0.00000000E+00  6.89990666E-02
  3.16423961E-01  7.44308291E-01  1.00000000E+00  0.00000000E+00  0.00000000E+00
  0.00000000E+00  0.00000000E+00  0.00000000E+00  0.00000000E+00  0.00000000E+00
  6.89990666E-02  3.16423961E-01  7.44308291E-01  1.00000000E+00  0.00000000E+00
  0.00000000E+00  0.00000000E+00  0.00000000E+00  0.00000000E+00  0.00000000E+00
  0.00000000E+00  0.00000000E+00  0.00000000E+00  0.00000000E+00  0.00000000E+00
  0.00000000E+00  0.00000000E+00  0.00000000E+00  0.00000000E+00  0.00000000E+00
  0.00000000E+00  0.00000000E+00  0.00000000E+00  0.00000000E+00  0.00000000E+00
  0.00000000E+00  0.00000000E+00  0.00000000E+00  0.00000000E+00  0.00000000E+00
  0.00000000E+00  0.00000000E+00  0.00000000E+00  0.00000000E+00  0.00000000E+00
  0.00000000E+00  0.00000000E+00  0.00000000E+00  0.00000000E+00  0.00000000E+00
  0.00000000E+00  0.00000000E+00  0.00000000E+00  0.00000000E+00  0.00000000E+00
  0.00000000E+00  0.00000000E+00  0.00000000E+00  0.00000000E+00
Coordinates of each shell                  R   N=         177
 -3.66561540E-02 -1.80908706E+00 -2.07141408E-01 -3.66561540E-02 -1.80908706E+00
 -2.07141408E-01 -3.66561540E-02 -1.80908706E+00 -2.07141408E-01 -3.66561540E-02
 -1.80908706E+00 -2.07141408E-01 -3.66561540E-02 -1.80908706E+00 -2.07141408E-01
  2.29835007E+00 -5.08642655E-02 -1.02329106E+00  2.29835007E+00 -5.08642655E-02
 -1.02329106E+00  2.29835007E+00 -5.08642655E-02 -1.02329106E+00  2.29835007E+00
 -5.08642655E-02 -1.02329106E+00 -2.10821900E+00  1.15977504E-01  9.55029256E-01
 -2.10821900E+00  1.15977504E-01  9.55029256E-01 -2.10821900E+00  1.15977504E-01
  9.55029256E-01 -2.10821900E+00  1.15977504E-01  9.55029256E-01  9.75693151E-01
 -3.13685973E+00  2.35515117E+00  9.75693151E-01 -3.13685973E+00  2.35515117E+00
  9.75693151E-01 -3.13685973E+00  2.35515117E+00  9.75693151E-01 -3.13685973E+00
  2.35515117E+00 -9.37462798E-01 -3.51466982E+00 -2.23031937E+00 -9.37462798E-01
 -3.51466982E+00 -2.23031937E+00 -9.37462798E-01 -3.51466982E+00 -2.23031937E+00
 -9.37462798E-01 -3.51466982E+00 -2.23031937E+00  3.47343957E+00  1.58613606E+00
  8.43384928E-01  3.47343957E+00  1.58613606E+00  8.43384928E-01  3.47343957E+00
  1.58613606E+00  8.43384928E-01  3.47343957E+00  1.58613606E+00  8.43384928E-01
 -3.61691602E+00  1.50232406E+00 -8.79342590E-01 -3.61691602E+00  1.50232406E+00
 -8.79342590E-01 -3.61691602E+00  1.50232406E+00 -8.79342590E-01 -3.61691602E+00
  1.50232406E+00 -8.79342590E-01  5.35604764E+00  3.22084427E+00 -5.47722316E-01
  5.35604764E+00  3.22084427E+00 -5.47722316E-01  5.35604764E+00  3.22084427E+00
 -5.47722316E-01  5.35604764E+00  3.22084427E+00 -5.47722316E-01 -5.37647246E+00
  3.19823025E+00  5.96011545E-01 -5.37647246E+00  3.19823025E+00  5.96011545E-01
 -5.37647246E+00  3.19823025E+00  5.96011545E-01 -5.37647246E+00  3.19823025E+00
  5.96011545E-01  2.00766708E+00  2.71682923E+00  1.76446879E+00  2.00766708E+00
  2.71682923E+00  1.76446879E+00  4.38862848E+00  4.00957947E-01  2.26644702E+00
  4.38862848E+00  4.00957947E-01  2.26644702E+00 -2.35172606E+00  2.59757645E+00
 -2.09815387E+00 -2.35172606E+00  2.59757645E+00 -2.09815387E+00 -4.64538425E+00
  1.45415349E-01 -2.04866307E+00 -4.64538425E+00  1.45415349E-01 -2.04866307E+00
  6.31528210E+00  4.47789298E+00  7.83833424E-01  6.31528210E+00  4.47789298E+00
  7.83833424E-01  6.76871492E+00  2.04544018E+00 -1.48512173E+00  6.76871492E+00
  2.04544018E+00 -1.48512173E+00  4.40079371E+00  4.36783924E+00 -1.97244022E+00
  4.40079371E+00  4.36783924E+00 -1.97244022E+00 -6.56741988E+00  4.27920542E+00
 -7.02337783E-01 -6.56741988E+00  4.27920542E+00 -7.02337783E-01 -6.59121203E+00
  2.07056516E+00  1.82478028E+00 -6.59121203E+00  2.07056516E+00  1.82478028E+00
 -4.30029823E+00  4.51827513E+00  1.76149262E+00 -4.30029823E+00  4.51827513E+00
  1.76149262E+00  2.81312699E-01 -4.83756853E+00  2.48626628E+00  2.81312699E-01
 -4.83756853E+00  2.48626628E+00
Constraint Structure                       R   N=          60
 -3.66561540E-02 -1.80908706E+00 -2.07141408E-01  2.29835007E+00 -5.08642655E-02
 -1.02329106E+00 -2.10821900E+00  1.15977504E-01  9.55029256E-01  9.75693151E-01
 -3.13685973E+00  2.35515117E+00 -9.37462798E-01 -3.51466982E+00 -2.23031937E+00
  3.47343957E+00  1.58613606E+00  8.43384928E-01 -3.61691602E+00  1.50232406E+00
 -8.79342590E-01  5.35604764E+00  3.22084427E+00 -5.47722316E-01 -5.37647246E+00
  3.19823025E+00  5.96011545E-01  2.00766708E+00  2.71682923E+00  1.76446879E+00
  4.38862848E+00  4.00957947E-01  2.26644702E+00 -2.35172606E+00  2.59757645E+00
 -2.09815387E+00 -4.64538425E+00  1.45415349E-01 -2.04866307E+00  6.31528210E+00
  4.47789298E+00  7.83833424E-01  6.76871492E+00  2.04544018E+00 -1.48512173E+00
  4.40079371E+00  4.36783924E+00 -1.97244022E+00 -6.56741988E+00  4.27920542E+00
 -7.02337783E-01 -6.59121203E+00  2.07056516E+00  1.82478028E+00 -4.30029823E+00
  4.51827513E+00  1.76149262E+00  2.81312699E-01 -4.83756853E+00  2.48626628E+00
Num ILSW                                   I              100
ILSW                                       I   N=         100
           0           1           0           0           2           0
           0           0           0           0           0          -1
           0           0           0           0           0           0
           0           0           0           0           1           0
           1           0           0           0           0           0
           0           0      100000           0          -1           0
           0           0           0           0           0           0
           0           0           0           1           1           0
           0           0           1           0           0           0
           0           0           4          40           0           0
           0           0           0           0           0           0
           0           0           0           0           0           0
           0           0           0           0           0           0
           0           0           0           0           0           0
           0           0           0           0           0           0
           0           0           0           0           0           0
           0           0           0           0
Num RLSW                                   I               40
RLSW                                       R   N=          40
  1.00000000E+00  1.00000000E+00  1.00000000E+00  1.00000000E+00  1.00000000E+00
  0.00000000E+00  0.00000000E+00  1.00000000E+00  0.00000000E+00  0.00000000E+00
  0.00000000E+00  0.00000000E+00  1.00000000E+00  0.00000000E+00  0.00000000E+00
  0.00000000E+00  0.00000000E+00  1.00000000E+00  0.00000000E+00  0.00000000E+00
  0.00000000E+00  0.00000000E+00  1.00000000E+00  0.00000000E+00  0.00000000E+00
  0.00000000E+00  0.00000000E+00  1.00000000E+00  0.00000000E+00  0.00000000E+00
  0.00000000E+00  0.00000000E+00  0.00000000E+00  0.00000000E+00  0.00000000E+00
  0.00000000E+00  0.00000000E+00  0.00000000E+00  1.00000000E+00  1.00000000E+00
MxBond                                     I                4
NBond                                      I   N=          20
           4           2           2           2           1           4
           4           4           4           1           1           1
           1           1           1           1           1           1
           1           1
IBond                                      I   N=          80
           2           3           4           5           1           6
           0           0           1           7           0           0
           1          20           0           0           1           0
           0           0           2           8          10          11
           3           9          12          13           6          14
          15          16           7          17          18          19
           6           0           0           0           6           0
           0           0           7           0           0           0
           7           0           0           0           8           0
           0           0           8           0           0           0
           8           0           0           0           9           0
           0           0           9           0           0           0
           9           0           0           0           4           0
           0           0
RBond                                      R   N=          80
  1.00000000E+00  1.00000000E+00  1.00000000E+00  2.00000000E+00  1.00000000E+00
  1.00000000E+00  0.00000000E+00  0.00000000E+00  1.00000000E+00  1.00000000E+00
  0.00000000E+00  0.00000000E+00  1.00000000E+00  1.00000000E+00  0.00000000E+00
  0.00000000E+00  2.00000000E+00  0.00000000E+00  0.00000000E+00  0.00000000E+00
  1.00000000E+00  1.00000000E+00  1.00000000E+00  1.00000000E+00  1.00000000E+00
  1.00000000E+00  1.00000000E+00  1.00000000E+00  1.00000000E+00  1.00000000E+00
  1.00000000E+00  1.00000000E+00  1.00000000E+00  1.00000000E+00  1.00000000E+00
  1.00000000E+00  1.00000000E+00  0.00000000E+00  0.00000000E+00  0.00000000E+00
  1.00000000E+00  0.00000000E+00  0.00000000E+00  0.00000000E+00  1.00000000E+00
  0.00000000E+00  0.00000000E+00  0.00000000E+00  1.00000000E+00  0.00000000E+00
  0.00000000E+00  0.00000000E+00  1.00000000E+00  0.00000000E+00  0.00000000E+00
  0.00000000E+00  1.00000000E+00  0.00000000E+00  0.00000000E+00  0.00000000E+00
  1.00000000E+00  0.00000000E+00  0.00000000E+00  0.00000000E+00  1.00000000E+00
  0.00000000E+00  0.00000000E+00  0.00000000E+00  1.00000000E+00  0.00000000E+00
  0.00000000E+00  0.00000000E+00  1.00000000E+00  0.00000000E+00  0.00000000E+00
  0.00000000E+00  1.00000000E+00  0.00000000E+00  0.00000000E+00  0.00000000E+00
Virial Ratio                               R      2.002278481670750E+00
SCF Energy                                 R     -7.981427838206311E+02
MP2 Energy                                 R     -7.994925519269506E+02
Total Energy                               R     -7.994925519269506E+02
Post-SCF wavefunction norm                 R      1.678169539308030E+00
RMS Force                                  R      3.303764462195904E-07
RMS Density                                R      7.691079180923583E-10
External E-field                           R   N=          35
  0.00000000E+00  0.00000000E+00  0.00000000E+00  0.00000000E+00  0.00000000E+00
  0.00000000E+00  0.00000000E+00  0.00000000E+00  0.00000000E+00  0.00000000E+00
  0.00000000E+00  0.00000000E+00  0.00000000E+00  0.00000000E+00  0.00000000E+00
  0.00000000E+00  0.00000000E+00  0.00000000E+00  0.00000000E+00  0.00000000E+00
  0.00000000E+00  0.00000000E+00  0.00000000E+00  0.00000000E+00  0.00000000E+00
  0.00000000E+00  0.00000000E+00  0.00000000E+00  0.00000000E+00  0.00000000E+00
  0.00000000E+00  0.00000000E+00  0.00000000E+00  0.00000000E+00  0.00000000E+00
IOpCl                                      I                0
IROHF                                      I                0
Alpha Orbital Energies                     R   N=         161
 -8.01163629E+01 -2.06130878E+01 -2.05994338E+01 -2.05989486E+01 -2.05204195E+01
 -1.13008568E+01 -1.13004020E+01 -1.12308172E+01 -1.12298896E+01 -7.63692684E+00
 -5.53563572E+00 -5.53509072E+00 -5.53459280E+00 -1.44626038E+00 -1.37795812E+00
 -1.37575169E+00 -1.29067295E+00 -1.04219773E+00 -1.03418146E+00 -8.74162559E-01
 -8.63880377E-01 -8.13151193E-01 -7.29033112E-01 -7.14668588E-01 -6.81590702E-01
 -6.56077596E-01 -6.50104277E-01 -6.16632477E-01 -6.03171442E-01 -5.74544996E-01
 -5.64463338E-01 -5.61625868E-01 -5.43408150E-01 -5.38056516E-01 -5.32689882E-01
 -5.17917915E-01 -5.01227596E-01 -4.78411434E-01 -4.75464399E-01 -4.60358125E-01
 -4.54730582E-01  1.95618456E-01  2.18415855E-01  2.49294884E-01  2.54760457E-01
  2.75607215E-01  2.84358960E-01  2.87727929E-01  2.96108820E-01  3.02905463E-01
  3.13901897E-01  3.21209609E-01  3.25406173E-01  3.39752839E-01  3.52575720E-01
  3.69075244E-01  3.77074931E-01  3.95179252E-01  4.16680204E-01  4.33092367E-01
  5.24032413E-01  5.35043339E-01  5.89150188E-01  6.11885153E-01  7.18733989E-01
  7.33040706E-01  7.42945905E-01  7.47660404E-01  7.53113445E-01  7.82447767E-01
  7.93355590E-01  8.34086520E-01  8.38555528E-01  8.90279870E-01  9.08170360E-01
  9.39168255E-01  9.53878805E-01  1.00022942E+00  1.04973018E+00  1.08920709E+00
  1.09278914E+00  1.11062167E+00  1.13474636E+00  1.14063523E+00  1.14610340E+00
  1.15634170E+00  1.16987061E+00  1.17285226E+00  1.20089224E+00  1.20243608E+00
  1.21671098E+00  1.22125378E+00  1.24539113E+00  1.27238318E+00  1.27734594E+00
  1.29844685E+00  1.34800880E+00  1.35687245E+00  1.37660709E+00  1.40349425E+00
  1.43702294E+00  1.46021799E+00  1.49917181E+00  1.52361045E+00  1.54960193E+00
  1.62840129E+00  1.67332723E+00  1.68236953E+00  1.70397805E+00  1.72930284E+00
  1.75668538E+00  1.79738695E+00  1.83607698E+00  1.85630792E+00  1.94830344E+00
  1.96697455E+00  2.02420789E+00  2.04121952E+00  2.06178812E+00  2.08968232E+00
  2.12377595E+00  2.13088193E+00  2.19191072E+00  2.19994891E+00  2.22740787E+00
  2.26314066E+00  2.27204904E+00  2.27846075E+00  2.30768560E+00  2.32540717E+00
  2.35468134E+00  2.45385531E+00  2.47052105E+00  2.47822059E+00  2.52571154E+00
  2.54841367E+00  2.57347043E+00  2.65862528E+00  2.66988026E+00  2.67099191E+00
  2.68501657E+00  2.69957616E+00  2.71983365E+00  2.74731504E+00  2.86524064E+00
  2.94264648E+00  2.95417002E+00  3.01670743E+00  3.08681712E+00  3.15946056E+00
  3.19443487E+00  3.26440542E+00  3.88557914E+00  4.09167188E+00  4.26410756E+00
  4.39332519E+00  4.48682845E+00  4.61090923E+00  4.62054950E+00  4.81180629E+00
  4.83759190E+00
Alpha MO coefficients                      R   N=       25921
  9.96426245E-01  1.34937171E-02  1.59374927E-05  3.16794131E-05  3.49632167E-05
 -2.20337362E-02 -5.12338674E-06 -3.67039907E-05  4.57291009E-06  2.21748758E-03
 -3.67836600E-05  1.41210090E-04  4.67253603E-05  7.47282225E-03  7.45202009E-03
  7.47904904E-03 -1.85804819E-05 -2.56244837E-05 -1.56708188E-05 -1.60412307E-05
 -9.82435452E-05  6.61560209E-05  4.85849579E-05 -4.95427490E-05  8.18224083E-04
 -2.77774438E-04 -1.95525987E-04  2.38013712E-04 -1.41587151E-04 -9.51264701E-05