
    -----------------------------------------------------------------------
          Psi4: An Open-Source Ab Initio Electronic Structure Package
                               Psi4 1.3.2 release

                         Git: Rev {HEAD} ecbda83 


    R. M. Parrish, L. A. Burns, D. G. A. Smith, A. C. Simmonett,
    A. E. DePrince III, E. G. Hohenstein, U. Bozkaya, A. Yu. Sokolov,
    R. Di Remigio, R. M. Richard, J. F. Gonthier, A. M. James,
    H. R. McAlexander, A. Kumar, M. Saitow, X. Wang, B. P. Pritchard,
    P. Verma, H. F. Schaefer III, K. Patkowski, R. A. King, E. F. Valeev,
    F. A. Evangelista, J. M. Turney, T. D. Crawford, and C. D. Sherrill,
    J. Chem. Theory Comput. 13(7) pp 3185--3197 (2017).
    (doi: 10.1021/acs.jctc.7b00174)


                         Additional Contributions by
    P. Kraus, H. Kruse, M. H. Lechner, M. C. Schieber, R. A. Shaw,
    A. Alenaizan, R. Galvelis, Z. L. Glick, S. Lehtola, and J. P. Misiewicz

    -----------------------------------------------------------------------


    Psi4 started on: Thursday, 11 February 2021 04:17AM

    Process ID: 22390
    Host:       node144.bme.utexas.edu
    PSIDATADIR: /home/xy3866/psi4conda/share/psi4
    Memory:     500.0 MiB
    Threads:    8
    
  ==> Input File <==

--------------------------------------------------------------------------
#psi4
#
memory 32 gb

molecule  {
0 1
  N       -1.0175820    -0.3767630     0.0000260
  N        0.0381600    -1.2151070    -0.0000250
  C       -0.6759380     0.9397300     0.0000060
  C        0.7089440     0.9680670    -0.0000050
  C        1.0983770    -0.3824860    -0.0000080
  H       -1.4207460     1.7232830     0.0000220
  H        1.3402470     1.8449540    -0.0000100
  H       -1.9477390    -0.7754960     0.0000400
  H        2.0958975    -0.8015133    -0.2000160
units angstrom
no_reorient  #important for SAPT in psi4, default
symmetry c1  #important for SAPT in psi4, default
}

set PROPERTIES_ORIGIN ["COM"]
properties('MP2/aug-cc-pvtz', properties = ['dipole'])
--------------------------------------------------------------------------

  Memory set to  29.802 GiB by Python driver.
    SCF Algorithm Type (re)set to DF.

*** tstart() called on node144.bme.utexas.edu
*** at Thu Feb 11 04:17:18 2021

   => Loading Basis Set <=

    Name: AUG-CC-PVTZ
    Role: ORBITAL
    Keyword: BASIS
    atoms 1-2 entry N          line   281 file /home/xy3866/psi4conda/share/psi4/basis/aug-cc-pvtz.gbs 
    atoms 3-5 entry C          line   235 file /home/xy3866/psi4conda/share/psi4/basis/aug-cc-pvtz.gbs 
    atoms 6-9 entry H          line    36 file /home/xy3866/psi4conda/share/psi4/basis/aug-cc-pvtz.gbs 


         ---------------------------------------------------------
                                   SCF
               by Justin Turney, Rob Parrish, Andy Simmonett
                          and Daniel G. A. Smith
                              RHF Reference
                        8 Threads,  30517 MiB Core
         ---------------------------------------------------------

  ==> Geometry <==

    Molecular point group: c1
    Full point group: C1

    Geometry (in Angstrom), charge = 0, multiplicity = 1:

       Center              X                  Y                   Z               Mass       
    ------------   -----------------  -----------------  -----------------  -----------------
         N           -1.016551188120    -0.347653555882     0.002989055305    14.003074004430
         N            0.039190811880    -1.185997555882     0.002938055305    14.003074004430
         C           -0.674907188120     0.968839444118     0.002969055305    12.000000000000
         C            0.709974811880     0.997176444118     0.002958055305    12.000000000000
         C            1.099407811880    -0.353376555882     0.002955055305    12.000000000000
         H           -1.419715188120     1.752392444118     0.002985055305     1.007825032230
         H            1.341277811880     1.874063444118     0.002953055305     1.007825032230
         H           -1.946708188120    -0.746386555882     0.003003055305     1.007825032230
         H            2.096928311880    -0.772403855882    -0.197052944695     1.007825032230

  Running in c1 symmetry.

  Rotational constants: A =      0.32030  B =      0.31257  C =      0.15830 [cm^-1]
  Rotational constants: A =   9602.47705  B =   9370.52970  C =   4745.73621 [MHz]
  Nuclear repulsion =  162.543042283183070

  Charge       = 0
  Multiplicity = 1
  Electrons    = 36
  Nalpha       = 18
  Nbeta        = 18

  ==> Algorithm <==

  SCF Algorithm Type is DF.
  DIIS enabled.
  MOM disabled.
  Fractional occupation disabled.
  Guess Type is SAD.
  Energy threshold   = 1.00e-10
  Density threshold  = 1.00e-10
  Integral threshold = 0.00e+00

  ==> Primary Basis <==

  Basis Set: AUG-CC-PVTZ
    Blend: AUG-CC-PVTZ
    Number of shells: 106
    Number of basis function: 322
    Number of Cartesian functions: 375
    Spherical Harmonics?: true
    Max angular momentum: 3

   => Loading Basis Set <=

    Name: (AUG-CC-PVTZ AUX)
    Role: JKFIT
    Keyword: DF_BASIS_SCF
    atoms 1-2 entry N          line   224 file /home/xy3866/psi4conda/share/psi4/basis/aug-cc-pvtz-jkfit.gbs 
    atoms 3-5 entry C          line   162 file /home/xy3866/psi4conda/share/psi4/basis/aug-cc-pvtz-jkfit.gbs 
    atoms 6-9 entry H          line    70 file /home/xy3866/psi4conda/share/psi4/basis/aug-cc-pvtz-jkfit.gbs 

  ==> Pre-Iterations <==

   -------------------------------------------------------
    Irrep   Nso     Nmo     Nalpha   Nbeta   Ndocc  Nsocc
   -------------------------------------------------------
     A        322     322       0       0       0       0
   -------------------------------------------------------
    Total     322     322      18      18      18       0
   -------------------------------------------------------

  ==> Integral Setup <==

  DFHelper Memory: AOs need 0.572 GiB; user supplied 22.352 GiB. Using in-core AOs.

  ==> MemDFJK: Density-Fitted J/K Matrices <==

    J tasked:                   Yes
    K tasked:                   Yes
    wK tasked:                   No
    OpenMP threads:               8
    Memory [MiB]:             22888
    Algorithm:                 Core
    Schwarz Cutoff:           1E-12
    Mask sparsity (%):       0.4572
    Fitting Condition:        1E-10

   => Auxiliary Basis Set <=

  Basis Set: (AUG-CC-PVTZ AUX)
    Blend: AUG-CC-PVTZ-JKFIT
    Number of shells: 206
    Number of basis function: 704
    Number of Cartesian functions: 875
    Spherical Harmonics?: true
    Max angular momentum: 4

  Minimum eigenvalue in the overlap matrix is 7.6920061149E-06.
  Using Symmetric Orthogonalization.

  SCF Guess: Superposition of Atomic Densities via on-the-fly atomic UHF.

  ==> Iterations <==

                           Total Energy        Delta E     RMS |[F,P]|

   @DF-RHF iter SAD:  -224.45157401504343   -2.24452e+02   0.00000e+00 
   @DF-RHF iter   1:  -224.74361016908239   -2.92036e-01   1.44243e-03 DIIS
   @DF-RHF iter   2:  -224.84571970024592   -1.02110e-01   6.99403e-04 DIIS
   @DF-RHF iter   3:  -224.86929693901163   -2.35772e-02   1.36499e-04 DIIS
   @DF-RHF iter   4:  -224.87069885060018   -1.40191e-03   5.16051e-05 DIIS
   @DF-RHF iter   5:  -224.87085068814750   -1.51838e-04   1.38965e-05 DIIS
   @DF-RHF iter   6:  -224.87087345675269   -2.27686e-05   5.60919e-06 DIIS
   @DF-RHF iter   7:  -224.87087960139846   -6.14465e-06   2.27645e-06 DIIS
   @DF-RHF iter   8:  -224.87088075207649   -1.15068e-06   1.13144e-06 DIIS
   @DF-RHF iter   9:  -224.87088097693041   -2.24854e-07   2.89560e-07 DIIS
   @DF-RHF iter  10:  -224.87088098667317   -9.74276e-09   1.18651e-07 DIIS
   @DF-RHF iter  11:  -224.87088098789641   -1.22324e-09   3.23419e-08 DIIS
   @DF-RHF iter  12:  -224.87088098804776   -1.51346e-10   1.02277e-08 DIIS
   @DF-RHF iter  13:  -224.87088098806981   -2.20552e-11   5.02952e-09 DIIS
   @DF-RHF iter  14:  -224.87088098807340   -3.58114e-12   2.22775e-09 DIIS
   @DF-RHF iter  15:  -224.87088098807433   -9.37916e-13   7.33882e-10 DIIS
   @DF-RHF iter  16:  -224.87088098807436   -2.84217e-14   2.39605e-10 DIIS
   @DF-RHF iter  17:  -224.87088098807430    5.68434e-14   9.57208e-11 DIIS
  Energy and wave function converged.


  ==> Post-Iterations <==

    Orbital Energies [Eh]
    ---------------------

    Doubly Occupied:                                                      

       1A    -15.643948     2A    -15.591098     3A    -11.282231  
       4A    -11.257281     5A    -11.225646     6A     -1.372017  
       7A     -1.092456     8A     -1.053001     9A     -0.824488  
      10A     -0.797103    11A     -0.742857    12A     -0.610065  
      13A     -0.603000    14A     -0.592629    15A     -0.560657  
      16A     -0.462987    17A     -0.364593    18A     -0.346417  

    Virtual:                                                              

      19A      0.024755    20A      0.035384    21A      0.040170  
      22A      0.052788    23A      0.083820    24A      0.084896  
      25A      0.099233    26A      0.106646    27A      0.110829  
      28A      0.114271    29A      0.118549    30A      0.129383  
      31A      0.138562    32A      0.144259    33A      0.150275  
      34A      0.156593    35A      0.164378    36A      0.168338  
      37A      0.197266    38A      0.198070    39A      0.208882  
      40A      0.222281    41A      0.228800    42A      0.243933  
      43A      0.263425    44A      0.268961    45A      0.286269  
      46A      0.288175    47A      0.308084    48A      0.314131  
      49A      0.317261    50A      0.329732    51A      0.331744  
      52A      0.335911    53A      0.344435    54A      0.358133  
      55A      0.369736    56A      0.380623    57A      0.392723  
      58A      0.398026    59A      0.404665    60A      0.412392  
      61A      0.427577    62A      0.451825    63A      0.457105  
      64A      0.460374    65A      0.466368    66A      0.480862  
      67A      0.482218    68A      0.487263    69A      0.492776  
      70A      0.500392    71A      0.526295    72A      0.539254  
      73A      0.544196    74A      0.571522    75A      0.592756  
      76A      0.602417    77A      0.611260    78A      0.614225  
      79A      0.625067    80A      0.638912    81A      0.651469  
      82A      0.659189    83A      0.676915    84A      0.684475  
      85A      0.688512    86A      0.707030    87A      0.714649  
      88A      0.747303    89A      0.749882    90A      0.768948  
      91A      0.790394    92A      0.808611    93A      0.816268  
      94A      0.822934    95A      0.836948    96A      0.863217  
      97A      0.887289    98A      0.891248    99A      0.895525  
     100A      0.925071   101A      0.927944   102A      0.939988  
     103A      0.950890   104A      0.969115   105A      0.972397  
     106A      0.978691   107A      0.987601   108A      0.989183  
     109A      1.004020   110A      1.026579   111A      1.029342  
     112A      1.036431   113A      1.053849   114A      1.079744  
     115A      1.094318   116A      1.104107   117A      1.116089  
     118A      1.118515   119A      1.138559   120A      1.147780  
     121A      1.153427   122A      1.159328   123A      1.191836  
     124A      1.193342   125A      1.207375   126A      1.216961  
     127A      1.237232   128A      1.239310   129A      1.259365  
     130A      1.277791   131A      1.283935   132A      1.293524  
     133A      1.305885   134A      1.316002   135A      1.336335  
     136A      1.359157   137A      1.386743   138A      1.419145  
     139A      1.439367   140A      1.455149   141A      1.460107  
     142A      1.480228   143A      1.487485   144A      1.509541  
     145A      1.518026   146A      1.535982   147A      1.579106  
     148A      1.598985   149A      1.610307   150A      1.638330  
     151A      1.660426   152A      1.684475   153A      1.700279  
     154A      1.711068   155A      1.720918   156A      1.759959  
     157A      1.771268   158A      1.785190   159A      1.789448  
     160A      1.818912   161A      1.866838   162A      1.887881  
     163A      1.920254   164A      1.933243   165A      1.936525  
     166A      1.949323   167A      1.980098   168A      1.990431  
     169A      2.006496   170A      2.013096   171A      2.029937  
     172A      2.031443   173A      2.078949   174A      2.086726  
     175A      2.106841   176A      2.110566   177A      2.130853  
     178A      2.157352   179A      2.208296   180A      2.241087  
     181A      2.276943   182A      2.283680   183A      2.312873  
     184A      2.315626   185A      2.331226   186A      2.379963  
     187A      2.427825   188A      2.436070   189A      2.468998  
     190A      2.482657   191A      2.493103   192A      2.539874  
     193A      2.575639   194A      2.582329   195A      2.615375  
     196A      2.622115   197A      2.728760   198A      2.794766  
     199A      2.829179   200A      2.839935   201A      2.898507  
     202A      2.954254   203A      2.974162   204A      2.996042  
     205A      3.062331   206A      3.182177   207A      3.202049  
     208A      3.224402   209A      3.254470   210A      3.271585  
     211A      3.286900   212A      3.341748   213A      3.374401  
     214A      3.401595   215A      3.423659   216A      3.453703  
     217A      3.490656   218A      3.510894   219A      3.544405  
     220A      3.571178   221A      3.589595   222A      3.642958  
     223A      3.691545   224A      3.728876   225A      3.732333  
     226A      3.739310   227A      3.770203   228A      3.783297  
     229A      3.806276   230A      3.828945   231A      3.831790  
     232A      3.878714   233A      3.891087   234A      3.927878  
     235A      3.966585   236A      4.010643   237A      4.038960  
     238A      4.048588   239A      4.078233   240A      4.084314  
     241A      4.108219   242A      4.128168   243A      4.161610  
     244A      4.181408   245A      4.199260   246A      4.228645  
     247A      4.256743   248A      4.290086   249A      4.307416  
     250A      4.323356   251A      4.363656   252A      4.382028  
     253A      4.427069   254A      4.438963   255A      4.458171  
     256A      4.497637   257A      4.522847   258A      4.571720  
     259A      4.644838   260A      4.669476   261A      4.694188  
     262A      4.696774   263A      4.777240   264A      4.807090  
     265A      4.827307   266A      4.849289   267A      4.915480  
     268A      4.923331   269A      4.947124   270A      4.984667  
     271A      5.002235   272A      5.023329   273A      5.034711  
     274A      5.053471   275A      5.093348   276A      5.108099  
     277A      5.153999   278A      5.203962   279A      5.240938  
     280A      5.271400   281A      5.308754   282A      5.316362  
     283A      5.367515   284A      5.410286   285A      5.440791  
     286A      5.500993   287A      5.583498   288A      5.594182  
     289A      5.618767   290A      5.676957   291A      5.710213  
     292A      5.711231   293A      5.763193   294A      5.778241  
     295A      5.826717   296A      5.855330   297A      5.894649  
     298A      5.957034   299A      6.011858   300A      6.066508  
     301A      6.128015   302A      6.168255   303A      6.236564  
     304A      6.252602   305A      6.276782   306A      6.350660  
     307A      6.473371   308A      6.562595   309A      6.637009  
     310A      6.691996   311A      6.746382   312A      6.834438  
     313A      6.955468   314A      7.119602   315A      7.340882  
     316A      7.668646   317A      7.812742   318A     15.375285  
     319A     16.464306   320A     17.024899   321A     17.612595  
     322A     18.542813  

    Final Occupation by Irrep:
              A 
    DOCC [    18 ]

  @DF-RHF Final Energy:  -224.87088098807430

   => Energetics <=

    Nuclear Repulsion Energy =            162.5430422831830697
    One-Electron Energy =                -625.9829002745256048
    Two-Electron Energy =                 238.5689770032682304
    Total Energy =                       -224.8708809880743047

Computation Completed

*** tstop() called on node144.bme.utexas.edu at Thu Feb 11 04:17:23 2021
Module time:
	user time   =      33.86 seconds =       0.56 minutes
	system time =       1.28 seconds =       0.02 minutes
	total time  =          5 seconds =       0.08 minutes
Total time:
	user time   =      33.86 seconds =       0.56 minutes
	system time =       1.28 seconds =       0.02 minutes
	total time  =          5 seconds =       0.08 minutes
   => Loading Basis Set <=

    Name: (AUG-CC-PVTZ AUX)
    Role: RIFIT
    Keyword: DF_BASIS_MP2
    atoms 1-2 entry N          line   206 file /home/xy3866/psi4conda/share/psi4/basis/aug-cc-pvtz-ri.gbs 
    atoms 3-5 entry C          line   148 file /home/xy3866/psi4conda/share/psi4/basis/aug-cc-pvtz-ri.gbs 
    atoms 6-9 entry H          line    30 file /home/xy3866/psi4conda/share/psi4/basis/aug-cc-pvtz-ri.gbs 


*** tstart() called on node144.bme.utexas.edu
*** at Thu Feb 11 04:17:23 2021


  //>>>>>>>>>>>>>>>>>>>>>>>>>>>>>>>>>>>//
  //               DFMP2               //
  //<<<<<<<<<<<<<<<<<<<<<<<<<<<<<<<<<<<//

	 --------------------------------------------------------
	                          DF-MP2                         
	      2nd-Order Density-Fitted Moller-Plesset Theory     
	              RMP2 Wavefunction,   8 Threads             
	                                                         
	        Rob Parrish, Justin Turney, Andy Simmonett,      
	           Ed Hohenstein, and C. David Sherrill          
	 --------------------------------------------------------

   => Auxiliary Basis Set <=

  Basis Set: (AUG-CC-PVTZ AUX)
    Blend: AUG-CC-PVTZ-RI
    Number of shells: 196
    Number of basis function: 714
    Number of Cartesian functions: 900
    Spherical Harmonics?: true
    Max angular momentum: 4

	 --------------------------------------------------------
	                 NBF =   322, NAUX =   714
	 --------------------------------------------------------
	   CLASS    FOCC     OCC    AOCC    AVIR     VIR    FVIR
	   PAIRS       0      18      18     304     304       0
	 --------------------------------------------------------

  DFHelper Memory: AOs need 0.572 GiB; user supplied 22.352 GiB. Using in-core AOs.


         ------------------------------------------------------------
                                     CPHF                           
                                  Rob Parrish                       
         ------------------------------------------------------------

  ==> Geometry <==

    Molecular point group: c1
    Full point group: C1

    Geometry (in Angstrom), charge = 0, multiplicity = 1:

       Center              X                  Y                   Z               Mass       
    ------------   -----------------  -----------------  -----------------  -----------------
         N           -1.016551188120    -0.347653555882     0.002989055305    14.003074004430
         N            0.039190811880    -1.185997555882     0.002938055305    14.003074004430
         C           -0.674907188120     0.968839444118     0.002969055305    12.000000000000
         C            0.709974811880     0.997176444118     0.002958055305    12.000000000000
         C            1.099407811880    -0.353376555882     0.002955055305    12.000000000000
         H           -1.419715188120     1.752392444118     0.002985055305     1.007825032230
         H            1.341277811880     1.874063444118     0.002953055305     1.007825032230
         H           -1.946708188120    -0.746386555882     0.003003055305     1.007825032230
         H            2.096928311880    -0.772403855882    -0.197052944695     1.007825032230

  Nuclear repulsion =  162.543042283183070
  Reference energy  = -224.870880988074305

  ==> Basis Set <==

  Basis Set: AUG-CC-PVTZ
    Blend: AUG-CC-PVTZ
    Number of shells: 106
    Number of basis function: 322
    Number of Cartesian functions: 375
    Spherical Harmonics?: true
    Max angular momentum: 3

  ==> CGRSolver (by Rob Parrish) <==

   Number of roots    =         1
   Preconditioning    =    JACOBI
   Convergence cutoff =     1E-06
   Maximum iterations =       100

  ==> CPHFRHamiltonian (by Rob Parrish) <== 

  ==> MemDFJK: Density-Fitted J/K Matrices <==

    J tasked:                   Yes
    K tasked:                   Yes
    wK tasked:                   No
    OpenMP threads:               8
    Memory [MiB]:             22888
    Algorithm:                 Core
    Schwarz Cutoff:           1E-12
    Mask sparsity (%):       0.4572
    Fitting Condition:        1E-10

   => Auxiliary Basis Set <=

  Basis Set: (AUG-CC-PVTZ AUX)
    Blend: AUG-CC-PVTZ-JKFIT
    Number of shells: 206
    Number of basis function: 704
    Number of Cartesian functions: 875
    Spherical Harmonics?: true
    Max angular momentum: 4

  ==> CPHF Iterations <==

  => Iterations <=

             Iter  Converged  Remaining    Residual
  CGR           1          0          1   9.991E-02
  CGR           2          0          1   3.907E-02
  CGR           3          0          1   2.181E-02
  CGR           4          0          1   7.548E-03
  CGR           5          0          1   1.870E-03
  CGR           6          0          1   5.828E-04
  CGR           7          0          1   2.592E-04
  CGR           8          0          1   1.013E-04
  CGR           9          0          1   4.389E-05
  CGR          10          0          1   1.550E-05
  CGR          11          0          1   3.935E-06
  CGR          12          0          1   1.557E-06
  CGR          13          1          0   4.590E-07

    CGRSolver converged.

	-----------------------------------------------------------
	 ==================> DF-MP2 Energies <==================== 
	-----------------------------------------------------------
	 Reference Energy          =    -224.8708809880743047 [Eh]
	 Singles Energy            =      -0.0000000000000000 [Eh]
	 Same-Spin Energy          =      -0.2460025530505275 [Eh]
	 Opposite-Spin Energy      =      -0.7465418981717167 [Eh]
	 Correlation Energy        =      -0.9925444512222442 [Eh]
	 Total Energy              =    -225.8634254392965488 [Eh]
	-----------------------------------------------------------
	 ================> DF-SCS-MP2 Energies <================== 
	-----------------------------------------------------------
	 SCS Same-Spin Scale       =       0.3333333333333333 [-]
	 SCS Opposite-Spin Scale   =       1.2000000000000000 [-]
	 SCS Same-Spin Energy      =      -0.0820008510168425 [Eh]
	 SCS Opposite-Spin Energy  =      -0.8958502778060600 [Eh]
	 SCS Correlation Energy    =      -0.9778511288229025 [Eh]
	 SCS Total Energy          =    -225.8487321168971960 [Eh]
	-----------------------------------------------------------



Properties will be evaluated at   0.000000,  -0.000000,   0.000000 [a0]

Properties computed using the MP2 density matrix

  Nuclear Dipole Moment: [e a0]
     X:     0.0701      Y:     1.9803      Z:    -0.1764

  Electronic Dipole Moment: [e a0]
     X:    -0.6814      Y:    -1.2913      Z:     0.1171

  Dipole Moment: [e a0]
     X:    -0.6113      Y:     0.6890      Z:    -0.0593     Total:     0.9230

  Dipole Moment: [D]
     X:    -1.5538      Y:     1.7512      Z:    -0.1507     Total:     2.3460


*** tstop() called on node144.bme.utexas.edu at Thu Feb 11 04:17:36 2021
Module time:
	user time   =      85.08 seconds =       1.42 minutes
	system time =       2.36 seconds =       0.04 minutes
	total time  =         13 seconds =       0.22 minutes
Total time:
	user time   =     119.66 seconds =       1.99 minutes
	system time =       3.69 seconds =       0.06 minutes
	total time  =         18 seconds =       0.30 minutes

    Psi4 stopped on: Thursday, 11 February 2021 04:17AM
    Psi4 wall time for execution: 0:00:18.01

*** Psi4 exiting successfully. Buy a developer a beer!
