
    -----------------------------------------------------------------------
          Psi4: An Open-Source Ab Initio Electronic Structure Package
                               Psi4 1.4a3.dev225 

                         Git: Rev {master} 7105e37 


    D. G. A. Smith, L. A. Burns, A. C. Simmonett, R. M. Parrish,
    M. C. Schieber, R. Galvelis, P. Kraus, H. Kruse, R. Di Remigio,
    A. Alenaizan, A. M. James, S. Lehtola, J. P. Misiewicz, M. Scheurer,
    R. A. Shaw, J. B. Schriber, Y. Xie, Z. L. Glick, D. A. Sirianni,
    J. S. O'Brien, J. M. Waldrop, A. Kumar, E. G. Hohenstein,
    B. P. Pritchard, B. R. Brooks, H. F. Schaefer III, A. Yu. Sokolov,
    K. Patkowski, A. E. DePrince III, U. Bozkaya, R. A. King,
    F. A. Evangelista, J. M. Turney, T. D. Crawford, C. D. Sherrill,
    J. Chem. Phys. 152(18) 184108 (2020). https://doi.org/10.1063/5.0006002

                            Additional Code Authors
    E. T. Seidl, C. L. Janssen, E. F. Valeev, M. L. Leininger,
    J. F. Gonthier, R. M. Richard, H. R. McAlexander, M. Saitow, X. Wang,
    P. Verma, and M. H. Lechner

             Previous Authors, Complete List of Code Contributors,
                       and Citations for Specific Modules
    https://github.com/psi4/psi4/blob/master/codemeta.json
    https://github.com/psi4/psi4/graphs/contributors
    http://psicode.org/psi4manual/master/introduction.html#citing-psifour

    -----------------------------------------------------------------------


    Psi4 started on: Friday, 19 March 2021 08:35PM

    Process ID: 174789
    Host:       c434-071.stampede2.tacc.utexas.edu
    PSIDATADIR: /home1/07844/xy3866/miniconda3/envs/p4env/share/psi4
    Memory:     500.0 MiB
    Threads:    32
    
  ==> Input File <==

--------------------------------------------------------------------------
#psi4
#
memory 32 gb

molecule  {
0 1
  S       -1.4659490    -0.0144420    -0.1375240
  O       -1.8389560    -0.1357530     1.4593660
  O       -1.9372557     1.2797234    -0.5664582
  O       -1.8964760    -1.2508500    -0.7695120
  C        0.3016350    -0.0022080    -0.0778240
  C        0.9828550    -1.2195450    -0.0166360
  C        0.9713380     1.2224880    -0.0767040
  C        2.3757070    -1.2011200     0.0524330
  C        2.3651070     1.2208170    -0.0119400
  C        3.0655130     0.0142220     0.0587080
  H        0.4312050    -2.1548360    -0.0414070
  H        0.4101370     2.1494950    -0.1500750
  H        2.9234940    -2.1386920     0.0978740
  H        2.9044060     2.1644160    -0.0189600
  H        4.1513480     0.0204100     0.1091410
  H       -2.3045580     0.6938590     1.6959880
units angstrom
no_reorient  #important for SAPT in psi4, default
symmetry c1  #important for SAPT in psi4, default
}

set PROPERTIES_ORIGIN ["COM"]
properties('MP2/aug-cc-pvtz', properties = ['dipole'])
--------------------------------------------------------------------------

  Memory set to  29.802 GiB by Python driver.
    SCF Algorithm Type (re)set to DF.

*** tstart() called on c434-071.stampede2.tacc.utexas.edu
*** at Fri Mar 19 20:35:31 2021

   => Loading Basis Set <=

    Name: AUG-CC-PVTZ
    Role: ORBITAL
    Keyword: BASIS
    atoms 1     entry S          line   906 file /home1/07844/xy3866/miniconda3/envs/p4env/share/psi4/basis/aug-cc-pvtz.gbs 
    atoms 2-4   entry O          line   331 file /home1/07844/xy3866/miniconda3/envs/p4env/share/psi4/basis/aug-cc-pvtz.gbs 
    atoms 5-10  entry C          line   239 file /home1/07844/xy3866/miniconda3/envs/p4env/share/psi4/basis/aug-cc-pvtz.gbs 
    atoms 11-16 entry H          line    40 file /home1/07844/xy3866/miniconda3/envs/p4env/share/psi4/basis/aug-cc-pvtz.gbs 


         ---------------------------------------------------------
                                   SCF
               by Justin Turney, Rob Parrish, Andy Simmonett
                          and Daniel G. A. Smith
                              RHF Reference
                       32 Threads,  30517 MiB Core
         ---------------------------------------------------------

  ==> Geometry <==

    Molecular point group: c1
    Full point group: C1

    Geometry (in Angstrom), charge = 0, multiplicity = 1:

       Center              X                  Y                   Z               Mass       
    ------------   -----------------  -----------------  -----------------  -----------------
         S           -1.413576507773    -0.008017962880    -0.127518083469    31.972071174400
         O           -1.786583507773    -0.129328962880     1.469371916531    15.994914619570
         O           -1.884883207773     1.286147437120    -0.556452283469    15.994914619570
         O           -1.844103507773    -1.244425962880    -0.759506083469    15.994914619570
         C            0.354007492227     0.004216037120    -0.067818083469    12.000000000000
         C            1.035227492227    -1.213120962880    -0.006630083469    12.000000000000
         C            1.023710492227     1.228912037120    -0.066698083469    12.000000000000
         C            2.428079492227    -1.194695962880     0.062438916531    12.000000000000
         C            2.417479492227     1.227241037120    -0.001934083469    12.000000000000
         C            3.117885492227     0.020646037120     0.068713916531    12.000000000000
         H            0.483577492227    -2.148411962880    -0.031401083469     1.007825032230
         H            0.462509492227     2.155919037120    -0.140069083469     1.007825032230
         H            2.975866492227    -2.132267962880     0.107879916531     1.007825032230
         H            2.956778492227     2.170840037120    -0.008954083469     1.007825032230
         H            4.203720492227     0.026834037120     0.119146916531     1.007825032230
         H           -2.252185507773     0.700283037120     1.705993916531     1.007825032230

  Running in c1 symmetry.

  Rotational constants: A =      0.08687  B =      0.02790  C =      0.02431 [cm^-1]
  Rotational constants: A =   2604.42347  B =    836.47538  C =    728.83087 [MHz]
  Nuclear repulsion =  635.047263928240568

  Charge       = 0
  Multiplicity = 1
  Electrons    = 82
  Nalpha       = 41
  Nbeta        = 41

  ==> Algorithm <==

  SCF Algorithm Type is DF.
  DIIS enabled.
  MOM disabled.
  Fractional occupation disabled.
  Guess Type is SAD.
  Energy threshold   = 1.00e-10
  Density threshold  = 1.00e-10
  Integral threshold = 1.00e-12

  ==> Primary Basis <==

  Basis Set: AUG-CC-PVTZ
    Blend: AUG-CC-PVTZ
    Number of shells: 196
    Number of basis functions: 602
    Number of Cartesian functions: 704
    Spherical Harmonics?: true
    Max angular momentum: 3

   => Loading Basis Set <=

    Name: (AUG-CC-PVTZ AUX)
    Role: JKFIT
    Keyword: DF_BASIS_SCF
    atoms 1     entry S          line   730 file /home1/07844/xy3866/miniconda3/envs/p4env/share/psi4/basis/aug-cc-pvtz-jkfit.gbs 
    atoms 2-4   entry O          line   286 file /home1/07844/xy3866/miniconda3/envs/p4env/share/psi4/basis/aug-cc-pvtz-jkfit.gbs 
    atoms 5-10  entry C          line   162 file /home1/07844/xy3866/miniconda3/envs/p4env/share/psi4/basis/aug-cc-pvtz-jkfit.gbs 
    atoms 11-16 entry H          line    70 file /home1/07844/xy3866/miniconda3/envs/p4env/share/psi4/basis/aug-cc-pvtz-jkfit.gbs 

  ==> Integral Setup <==

  DFHelper Memory: AOs need 3.535 GiB; user supplied 22.352 GiB. Using in-core AOs.

  ==> MemDFJK: Density-Fitted J/K Matrices <==

    J tasked:                   Yes
    K tasked:                   Yes
    wK tasked:                   No
    OpenMP threads:              32
    Memory [MiB]:             22888
    Algorithm:                 Core
    Schwarz Cutoff:           1E-12
    Mask sparsity (%):       8.3112
    Fitting Condition:        1E-10

   => Auxiliary Basis Set <=

  Basis Set: (AUG-CC-PVTZ AUX)
    Blend: AUG-CC-PVTZ-JKFIT
    Number of shells: 396
    Number of basis functions: 1358
    Number of Cartesian functions: 1689
    Spherical Harmonics?: true
    Max angular momentum: 4

  Minimum eigenvalue in the overlap matrix is 5.8891356384E-07.
  Reciprocal condition number of the overlap matrix is 3.3929160293E-08.
    Using symmetric orthogonalization.

  ==> Pre-Iterations <==

  SCF Guess: Superposition of Atomic Densities via on-the-fly atomic UHF (no occupation information).

   -------------------------
    Irrep   Nso     Nmo    
   -------------------------
     A        602     602 
   -------------------------
    Total     602     602
   -------------------------

  ==> Iterations <==

                           Total Energy        Delta E     RMS |[F,P]|

   @DF-RHF iter SAD:  -852.75856720785816   -8.52759e+02   0.00000e+00 
   @DF-RHF iter   1:  -852.59538781777053    1.63179e-01   1.50125e-03 DIIS
   @DF-RHF iter   2:  -852.81758133285553   -2.22194e-01   1.02959e-03 DIIS
   @DF-RHF iter   3:  -852.95452395111511   -1.36943e-01   1.40557e-04 DIIS
   @DF-RHF iter   4:  -852.95818756055212   -3.66361e-03   6.24890e-05 DIIS
   @DF-RHF iter   5:  -852.95895282843935   -7.65268e-04   1.18550e-05 DIIS
   @DF-RHF iter   6:  -852.95900121121292   -4.83828e-05   4.64739e-06 DIIS
   @DF-RHF iter   7:  -852.95901387304218   -1.26618e-05   2.35524e-06 DIIS
   @DF-RHF iter   8:  -852.95901840144859   -4.52841e-06   1.12731e-06 DIIS
   @DF-RHF iter   9:  -852.95901980062354   -1.39917e-06   4.25479e-07 DIIS
   @DF-RHF iter  10:  -852.95901998356806   -1.82945e-07   1.40053e-07 DIIS
   @DF-RHF iter  11:  -852.95901999857642   -1.50084e-08   4.62089e-08 DIIS
   @DF-RHF iter  12:  -852.95901999939190   -8.15476e-10   2.28217e-08 DIIS
   @DF-RHF iter  13:  -852.95901999951855   -1.26647e-10   4.01808e-09 DIIS
   @DF-RHF iter  14:  -852.95901999952412   -5.57066e-12   1.53266e-09 DIIS
   @DF-RHF iter  15:  -852.95901999952457   -4.54747e-13   7.22220e-10 DIIS
   @DF-RHF iter  16:  -852.95901999952866   -4.09273e-12   2.31494e-10 DIIS
   @DF-RHF iter  17:  -852.95901999952605    2.61480e-12   8.60695e-11 DIIS
  Energy and wave function converged.


  ==> Post-Iterations <==

    Orbital Energies [Eh]
    ---------------------

    Doubly Occupied:                                                      

       1A    -92.231375     2A    -20.631179     3A    -20.569914  
       4A    -20.563544     5A    -11.290498     6A    -11.276710  
       7A    -11.275795     8A    -11.272003     9A    -11.265212  
      10A    -11.264770    11A     -9.194632    12A     -6.880264  
      13A     -6.879081    14A     -6.878736    15A     -1.501922  
      16A     -1.384756    17A     -1.360901    18A     -1.188503  
      19A     -1.066977    20A     -1.048494    21A     -0.927550  
      22A     -0.861089    23A     -0.831921    24A     -0.759390  
      25A     -0.735850    26A     -0.698015    27A     -0.685536  
      28A     -0.661177    29A     -0.646895    30A     -0.631641  
      31A     -0.620792    32A     -0.580487    33A     -0.553655  
      34A     -0.538593    35A     -0.528487    36A     -0.522614  
      37A     -0.510873    38A     -0.490449    39A     -0.481911  
      40A     -0.375945    41A     -0.366455  

    Virtual:                                                              

      42A      0.022070    43A      0.029756    44A      0.033214  
      45A      0.043014    46A      0.051889    47A      0.059528  
      48A      0.064248    49A      0.078469    50A      0.084216  
      51A      0.088579    52A      0.094348    53A      0.101556  
      54A      0.102492    55A      0.110050    56A      0.110100  
      57A      0.119103    58A      0.123433    59A      0.127341  
      60A      0.128467    61A      0.133545    62A      0.137045  
      63A      0.143727    64A      0.147291    65A      0.150551  
      66A      0.152510    67A      0.155116    68A      0.158368  
      69A      0.170435    70A      0.181360    71A      0.188311  
      72A      0.207619    73A      0.214405    74A      0.223552  
      75A      0.226975    76A      0.234922    77A      0.238433  
      78A      0.243629    79A      0.248681    80A      0.253669  
      81A      0.254177    82A      0.261383    83A      0.269198  
      84A      0.269825    85A      0.274537    86A      0.279640  
      87A      0.282003    88A      0.285557    89A      0.290335  
      90A      0.291807    91A      0.296631    92A      0.301835  
      93A      0.304619    94A      0.306795    95A      0.312851  
      96A      0.318318    97A      0.322281    98A      0.330825  
      99A      0.336748   100A      0.343763   101A      0.348098  
     102A      0.357966   103A      0.362264   104A      0.367001  
     105A      0.370594   106A      0.376152   107A      0.378963  
     108A      0.398182   109A      0.405716   110A      0.417934  
     111A      0.422421   112A      0.425034   113A      0.431768  
     114A      0.434369   115A      0.442691   116A      0.448661  
     117A      0.451212   118A      0.452366   119A      0.459375  
     120A      0.469016   121A      0.476528   122A      0.477279  
     123A      0.482605   124A      0.490815   125A      0.494073  
     126A      0.494406   127A      0.503064   128A      0.504135  
     129A      0.510292   130A      0.517501   131A      0.520455  
     132A      0.524098   133A      0.526540   134A      0.531073  
     135A      0.539393   136A      0.541432   137A      0.559967  
     138A      0.570282   139A      0.579001   140A      0.591557  
     141A      0.597478   142A      0.606617   143A      0.610538  
     144A      0.615536   145A      0.625242   146A      0.634751  
     147A      0.641074   148A      0.644944   149A      0.651983  
     150A      0.659946   151A      0.662459   152A      0.669554  
     153A      0.684325   154A      0.696369   155A      0.699131  
     156A      0.709790   157A      0.716260   158A      0.720609  
     159A      0.722216   160A      0.728229   161A      0.737351  
     162A      0.748243   163A      0.756011   164A      0.772686  
     165A      0.780115   166A      0.804379   167A      0.806720  
     168A      0.818013   169A      0.825568   170A      0.828671  
     171A      0.839737   172A      0.841610   173A      0.848487  
     174A      0.850723   175A      0.861265   176A      0.866769  
     177A      0.869447   178A      0.874022   179A      0.876606  
     180A      0.882949   181A      0.892636   182A      0.897944  
     183A      0.903086   184A      0.905922   185A      0.913620  
     186A      0.921625   187A      0.932775   188A      0.938456  
     189A      0.946359   190A      0.955137   191A      0.956906  
     192A      0.964680   193A      0.971933   194A      0.976680  
     195A      0.982683   196A      0.995515   197A      0.999954  
     198A      1.008944   199A      1.012811   200A      1.020208  
     201A      1.030137   202A      1.032303   203A      1.036130  
     204A      1.042475   205A      1.049985   206A      1.055553  
     207A      1.061041   208A      1.065403   209A      1.072250  
     210A      1.078911   211A      1.085413   212A      1.086735  
     213A      1.089861   214A      1.094515   215A      1.098526  
     216A      1.106078   217A      1.109323   218A      1.117038  
     219A      1.128836   220A      1.142018   221A      1.144884  
     222A      1.159078   223A      1.160799   224A      1.168387  
     225A      1.172443   226A      1.183363   227A      1.189387  
     228A      1.193226   229A      1.200411   230A      1.202623  
     231A      1.214470   232A      1.216221   233A      1.224108  
     234A      1.234795   235A      1.246839   236A      1.254166  
     237A      1.261004   238A      1.273948   239A      1.280854  
     240A      1.284088   241A      1.301944   242A      1.309837  
     243A      1.314925   244A      1.322613   245A      1.326380  
     246A      1.331564   247A      1.337733   248A      1.354901  
     249A      1.363810   250A      1.367806   251A      1.381829  
     252A      1.391504   253A      1.403205   254A      1.410505  
     255A      1.421007   256A      1.425262   257A      1.436426  
     258A      1.447570   259A      1.454985   260A      1.473854  
     261A      1.477098   262A      1.493214   263A      1.502257  
     264A      1.516486   265A      1.526641   266A      1.540146  
     267A      1.551251   268A      1.562120   269A      1.571090  
     270A      1.579296   271A      1.583678   272A      1.599238  
     273A      1.606788   274A      1.610223   275A      1.638693  
     276A      1.654944   277A      1.666503   278A      1.676498  
     279A      1.681860   280A      1.685109   281A      1.699616  
     282A      1.704845   283A      1.712866   284A      1.741392  
     285A      1.749677   286A      1.775158   287A      1.781690  
     288A      1.796353   289A      1.802580   290A      1.816427  
     291A      1.825913   292A      1.826509   293A      1.844760  
     294A      1.851075   295A      1.863214   296A      1.868056  
     297A      1.881727   298A      1.904245   299A      1.913419  
     300A      1.917697   301A      1.945435   302A      1.954583  
     303A      1.964183   304A      1.972891   305A      1.979917  
     306A      1.993386   307A      2.001461   308A      2.014277  
     309A      2.026949   310A      2.039969   311A      2.042194  
     312A      2.053230   313A      2.062997   314A      2.069883  
     315A      2.074884   316A      2.078258   317A      2.089984  
     318A      2.097510   319A      2.130946   320A      2.137931  
     321A      2.160580   322A      2.195023   323A      2.201276  
     324A      2.219638   325A      2.228717   326A      2.241710  
     327A      2.252702   328A      2.267261   329A      2.271929  
     330A      2.294410   331A      2.299070   332A      2.310584  
     333A      2.314732   334A      2.327943   335A      2.333829  
     336A      2.336054   337A      2.352930   338A      2.359278  
     339A      2.370030   340A      2.385212   341A      2.390820  
     342A      2.399006   343A      2.411243   344A      2.427787  
     345A      2.434369   346A      2.446813   347A      2.455599  
     348A      2.474966   349A      2.481800   350A      2.499671  
     351A      2.510065   352A      2.519767   353A      2.530716  
     354A      2.545433   355A      2.557094   356A      2.560803  
     357A      2.579217   358A      2.587995   359A      2.601654  
     360A      2.619488   361A      2.630858   362A      2.660398  
     363A      2.668050   364A      2.690141   365A      2.694542  
     366A      2.702569   367A      2.723288   368A      2.736382  
     369A      2.761944   370A      2.766613   371A      2.775600  
     372A      2.801859   373A      2.814894   374A      2.831232  
     375A      2.834655   376A      2.861033   377A      2.873774  
     378A      2.899009   379A      2.911593   380A      2.917297  
     381A      2.942061   382A      2.967293   383A      2.981655  
     384A      2.996492   385A      3.023868   386A      3.031532  
     387A      3.058647   388A      3.083940   389A      3.140293  
     390A      3.142156   391A      3.161974   392A      3.187644  
     393A      3.202949   394A      3.220636   395A      3.233788  
     396A      3.243458   397A      3.275493   398A      3.307273  
     399A      3.323422   400A      3.334253   401A      3.338023  
     402A      3.350006   403A      3.353420   404A      3.370529  
     405A      3.378930   406A      3.384661   407A      3.390362  
     408A      3.401582   409A      3.422306   410A      3.439688  
     411A      3.458554   412A      3.471725   413A      3.481895  
     414A      3.493052   415A      3.504182   416A      3.520407  
     417A      3.530121   418A      3.534775   419A      3.550631  
     420A      3.566505   421A      3.575340   422A      3.582332  
     423A      3.602088   424A      3.611281   425A      3.623100  
     426A      3.650875   427A      3.672918   428A      3.686863  
     429A      3.712942   430A      3.724514   431A      3.739350  
     432A      3.777298   433A      3.788715   434A      3.796829  
     435A      3.816342   436A      3.822075   437A      3.829072  
     438A      3.845741   439A      3.856105   440A      3.880105  
     441A      3.886436   442A      3.901343   443A      3.905260  
     444A      3.911003   445A      3.929015   446A      3.949906  
     447A      3.962039   448A      3.966939   449A      3.973291  
     450A      4.010251   451A      4.018581   452A      4.024894  
     453A      4.042832   454A      4.088269   455A      4.097688  
     456A      4.112881   457A      4.127161   458A      4.132965  
     459A      4.137112   460A      4.164453   461A      4.184703  
     462A      4.215422   463A      4.220937   464A      4.237432  
     465A      4.246827   466A      4.252557   467A      4.274995  
     468A      4.288316   469A      4.321383   470A      4.332996  
     471A      4.345433   472A      4.356367   473A      4.368396  
     474A      4.395417   475A      4.401434   476A      4.414782  
     477A      4.424301   478A      4.434203   479A      4.448099  
     480A      4.451161   481A      4.471151   482A      4.495298  
     483A      4.534061   484A      4.562720   485A      4.574851  
     486A      4.611212   487A      4.623302   488A      4.644391  
     489A      4.683536   490A      4.688803   491A      4.694647  
     492A      4.699088   493A      4.707400   494A      4.728600  
     495A      4.757606   496A      4.778368   497A      4.783514  
     498A      4.814619   499A      4.829803   500A      4.867748  
     501A      4.894405   502A      4.898718   503A      4.916246  
     504A      4.934955   505A      4.949499   506A      4.996666  
     507A      5.000226   508A      5.021273   509A      5.041304  
     510A      5.060227   511A      5.087334   512A      5.096442  
     513A      5.108406   514A      5.122438   515A      5.132427  
     516A      5.141477   517A      5.145921   518A      5.172537  
     519A      5.191711   520A      5.237107   521A      5.264826  
     522A      5.278386   523A      5.285543   524A      5.313226  
     525A      5.317769   526A      5.323885   527A      5.369935  
     528A      5.398738   529A      5.422498   530A      5.464571  
     531A      5.473193   532A      5.545567   533A      5.609477  
     534A      5.717259   535A      5.738026   536A      5.747581  
     537A      5.778062   538A      5.807455   539A      5.879355  
     540A      5.896656   541A      6.010290   542A      6.030655  
     543A      6.105123   544A      6.132493   545A      6.223880  
     546A      6.232044   547A      6.288503   548A      6.318152  
     549A      6.434348   550A      6.460722   551A      6.557047  
     552A      6.670367   553A      6.681547   554A      6.689304  
     555A      6.729656   556A      6.770877   557A      6.785584  
     558A      6.808170   559A      6.821061   560A      6.846039  
     561A      6.864535   562A      6.906245   563A      6.912358  
     564A      6.915918   565A      6.945365   566A      6.956288  
     567A      6.984219   568A      7.016124   569A      7.026396  
     570A      7.045192   571A      7.071571   572A      7.090064  
     573A      7.095164   574A      7.221584   575A      7.228060  
     576A      7.247288   577A      7.277040   578A      7.292166  
     579A      7.315939   580A      7.320483   581A      7.360825  
     582A      7.408022   583A      7.450679   584A      7.497734  
     585A      7.644756   586A      7.724539   587A      7.733925  
     588A      7.744809   589A      7.779526   590A      7.821715  
     591A      7.973839   592A      8.302334   593A     12.696590  
     594A     13.056206   595A     13.889711   596A     15.460085  
     597A     16.003237   598A     16.088902   599A     18.077263  
     600A     19.263354   601A     19.411665   602A     19.863346  

    Final Occupation by Irrep:
              A 
    DOCC [    41 ]

  @DF-RHF Final Energy:  -852.95901999952605

   => Energetics <=

    Nuclear Repulsion Energy =            635.0472639282405680
    One-Electron Energy =               -2431.9433845743283200
    Two-Electron Energy =                 943.9371006465615892
    Total Energy =                       -852.9590199995260491

Computation Completed

*** tstop() called on c434-071.stampede2.tacc.utexas.edu at Fri Mar 19 20:36:06 2021
Module time:
	user time   =     581.99 seconds =       9.70 minutes
	system time =      45.84 seconds =       0.76 minutes
	total time  =         35 seconds =       0.58 minutes
Total time:
	user time   =     581.99 seconds =       9.70 minutes
	system time =      45.84 seconds =       0.76 minutes
	total time  =         35 seconds =       0.58 minutes
   => Loading Basis Set <=

    Name: (AUG-CC-PVTZ AUX)
    Role: RIFIT
    Keyword: DF_BASIS_MP2
    atoms 1     entry S          line   666 file /home1/07844/xy3866/miniconda3/envs/p4env/share/psi4/basis/aug-cc-pvtz-ri.gbs 
    atoms 2-4   entry O          line   264 file /home1/07844/xy3866/miniconda3/envs/p4env/share/psi4/basis/aug-cc-pvtz-ri.gbs 
    atoms 5-10  entry C          line   148 file /home1/07844/xy3866/miniconda3/envs/p4env/share/psi4/basis/aug-cc-pvtz-ri.gbs 
    atoms 11-16 entry H          line    30 file /home1/07844/xy3866/miniconda3/envs/p4env/share/psi4/basis/aug-cc-pvtz-ri.gbs 


*** tstart() called on c434-071.stampede2.tacc.utexas.edu
*** at Fri Mar 19 20:36:07 2021


  //>>>>>>>>>>>>>>>>>>>>>>>>>>>>>>>>>>>//
  //               DFMP2               //
  //<<<<<<<<<<<<<<<<<<<<<<<<<<<<<<<<<<<//

	 --------------------------------------------------------
	                          DF-MP2                         
	      2nd-Order Density-Fitted Moller-Plesset Theory     
	              RMP2 Wavefunction,  32 Threads             
	                                                         
	        Rob Parrish, Justin Turney, Andy Simmonett,      
	           Ed Hohenstein, and C. David Sherrill          
	 --------------------------------------------------------

   => Auxiliary Basis Set <=

  Basis Set: (AUG-CC-PVTZ AUX)
    Blend: AUG-CC-PVTZ-RI
    Number of shells: 373
    Number of basis functions: 1377
    Number of Cartesian functions: 1745
    Spherical Harmonics?: true
    Max angular momentum: 4

	 --------------------------------------------------------
	                 NBF =   602, NAUX =  1377
	 --------------------------------------------------------
	   CLASS    FOCC     OCC    AOCC    AVIR     VIR    FVIR
	   PAIRS       0      41      41     561     561       0
	 --------------------------------------------------------

  DFHelper Memory: AOs need 3.652 GiB; user supplied 22.352 GiB. Using in-core AOs.


         ------------------------------------------------------------
                                     CPHF                           
                                  Rob Parrish                       
         ------------------------------------------------------------

  ==> Geometry <==

    Molecular point group: c1
    Full point group: C1

    Geometry (in Angstrom), charge = 0, multiplicity = 1:

       Center              X                  Y                   Z               Mass       
    ------------   -----------------  -----------------  -----------------  -----------------
         S           -1.413576507773    -0.008017962880    -0.127518083469    31.972071174400
         O           -1.786583507773    -0.129328962880     1.469371916531    15.994914619570
         O           -1.884883207773     1.286147437120    -0.556452283469    15.994914619570
         O           -1.844103507773    -1.244425962880    -0.759506083469    15.994914619570
         C            0.354007492227     0.004216037120    -0.067818083469    12.000000000000
         C            1.035227492227    -1.213120962880    -0.006630083469    12.000000000000
         C            1.023710492227     1.228912037120    -0.066698083469    12.000000000000
         C            2.428079492227    -1.194695962880     0.062438916531    12.000000000000
         C            2.417479492227     1.227241037120    -0.001934083469    12.000000000000
         C            3.117885492227     0.020646037120     0.068713916531    12.000000000000
         H            0.483577492227    -2.148411962880    -0.031401083469     1.007825032230
         H            0.462509492227     2.155919037120    -0.140069083469     1.007825032230
         H            2.975866492227    -2.132267962880     0.107879916531     1.007825032230
         H            2.956778492227     2.170840037120    -0.008954083469     1.007825032230
         H            4.203720492227     0.026834037120     0.119146916531     1.007825032230
         H           -2.252185507773     0.700283037120     1.705993916531     1.007825032230

  Nuclear repulsion =  635.047263928240568
  Reference energy  = -852.959019999526049

  ==> Basis Set <==

  Basis Set: AUG-CC-PVTZ
    Blend: AUG-CC-PVTZ
    Number of shells: 196
    Number of basis functions: 602
    Number of Cartesian functions: 704
    Spherical Harmonics?: true
    Max angular momentum: 3

  ==> CGRSolver (by Rob Parrish) <==

   Number of roots    =         1
   Preconditioning    =    JACOBI
   Convergence cutoff =     1E-06
   Maximum iterations =       100

  ==> CPHFRHamiltonian (by Rob Parrish) <== 

  ==> MemDFJK: Density-Fitted J/K Matrices <==

    J tasked:                   Yes
    K tasked:                   Yes
    wK tasked:                   No
    OpenMP threads:              32
    Memory [MiB]:             22888
    Algorithm:                 Core
    Schwarz Cutoff:           1E-12
    Mask sparsity (%):       5.1142
    Fitting Condition:        1E-10

   => Auxiliary Basis Set <=

  Basis Set: (AUG-CC-PVTZ AUX)
    Blend: AUG-CC-PVTZ-JKFIT
    Number of shells: 396
    Number of basis functions: 1358
    Number of Cartesian functions: 1689
    Spherical Harmonics?: true
    Max angular momentum: 4

  ==> CPHF Iterations <==

  => Iterations <=

             Iter  Converged  Remaining    Residual
  CGR           1          0          1   1.114E-01
  CGR           2          0          1   3.283E-02
  CGR           3          0          1   1.677E-02
  CGR           4          0          1   7.433E-03
  CGR           5          0          1   3.593E-03
  CGR           6          0          1   1.619E-03
  CGR           7          0          1   4.839E-04
  CGR           8          0          1   1.612E-04
  CGR           9          0          1   4.651E-05
  CGR          10          0          1   1.877E-05
  CGR          11          0          1   6.869E-06
  CGR          12          0          1   1.486E-06
  CGR          13          1          0   6.747E-07

    CGRSolver converged.

	-----------------------------------------------------------
	 ==================> DF-MP2 Energies <==================== 
	-----------------------------------------------------------
	 Reference Energy          =    -852.9590199995260491 [Eh]
	 Singles Energy            =      -0.0000000000000000 [Eh]
	 Same-Spin Energy          =      -0.5322394894554719 [Eh]
	 Opposite-Spin Energy      =      -1.5527621941394445 [Eh]
	 Correlation Energy        =      -2.0850016835949163 [Eh]
	 Total Energy              =    -855.0440216831209455 [Eh]
	-----------------------------------------------------------
	 ================> DF-SCS-MP2 Energies <================== 
	-----------------------------------------------------------
	 SCS Same-Spin Scale       =       0.3333333333333333 [-]
	 SCS Opposite-Spin Scale   =       1.2000000000000000 [-]
	 SCS Same-Spin Energy      =      -0.1774131631518240 [Eh]
	 SCS Opposite-Spin Energy  =      -1.8633146329673334 [Eh]
	 SCS Correlation Energy    =      -2.0407277961191572 [Eh]
	 SCS Total Energy          =    -854.9997477956452485 [Eh]
	-----------------------------------------------------------



Properties will be evaluated at  -0.000000,  -0.000000,   0.000000 [a0]

Properties computed using the MP2 density matrix

  Nuclear Dipole Moment: [e a0]
     X:     8.2143      Y:     0.7242      Z:     1.6404

  Electronic Dipole Moment: [e a0]
     X:    -6.7523      Y:    -0.2780      Z:    -0.8810

  Dipole Moment: [e a0]
     X:     1.4620      Y:     0.4462      Z:     0.7594     Total:     1.7068

  Dipole Moment: [D]
     X:     3.7161      Y:     1.1342      Z:     1.9303     Total:     4.3383


*** tstop() called on c434-071.stampede2.tacc.utexas.edu at Fri Mar 19 20:40:13 2021
Module time:
	user time   =    1725.13 seconds =      28.75 minutes
	system time =      62.57 seconds =       1.04 minutes
	total time  =        246 seconds =       4.10 minutes
Total time:
	user time   =    2307.93 seconds =      38.47 minutes
	system time =     108.43 seconds =       1.81 minutes
	total time  =        282 seconds =       4.70 minutes

    Psi4 stopped on: Friday, 19 March 2021 08:40PM
    Psi4 wall time for execution: 0:04:43.53

*** Psi4 exiting successfully. Buy a developer a beer!
