
    -----------------------------------------------------------------------
          Psi4: An Open-Source Ab Initio Electronic Structure Package
                               Psi4 1.4a3.dev225 

                         Git: Rev {master} 7105e37 


    D. G. A. Smith, L. A. Burns, A. C. Simmonett, R. M. Parrish,
    M. C. Schieber, R. Galvelis, P. Kraus, H. Kruse, R. Di Remigio,
    A. Alenaizan, A. M. James, S. Lehtola, J. P. Misiewicz, M. Scheurer,
    R. A. Shaw, J. B. Schriber, Y. Xie, Z. L. Glick, D. A. Sirianni,
    J. S. O'Brien, J. M. Waldrop, A. Kumar, E. G. Hohenstein,
    B. P. Pritchard, B. R. Brooks, H. F. Schaefer III, A. Yu. Sokolov,
    K. Patkowski, A. E. DePrince III, U. Bozkaya, R. A. King,
    F. A. Evangelista, J. M. Turney, T. D. Crawford, C. D. Sherrill,
    J. Chem. Phys. 152(18) 184108 (2020). https://doi.org/10.1063/5.0006002

                            Additional Code Authors
    E. T. Seidl, C. L. Janssen, E. F. Valeev, M. L. Leininger,
    J. F. Gonthier, R. M. Richard, H. R. McAlexander, M. Saitow, X. Wang,
    P. Verma, and M. H. Lechner

             Previous Authors, Complete List of Code Contributors,
                       and Citations for Specific Modules
    https://github.com/psi4/psi4/blob/master/codemeta.json
    https://github.com/psi4/psi4/graphs/contributors
    http://psicode.org/psi4manual/master/introduction.html#citing-psifour

    -----------------------------------------------------------------------


    Psi4 started on: Saturday, 20 March 2021 01:35PM

    Process ID: 192651
    Host:       c446-101.stampede2.tacc.utexas.edu
    PSIDATADIR: /home1/07844/xy3866/miniconda3/envs/p4env/share/psi4
    Memory:     500.0 MiB
    Threads:    32
    
  ==> Input File <==

--------------------------------------------------------------------------
#psi4
#
memory 32 gb

molecule  {
0 1
  S       -0.8349460    -1.1774250     0.0297960
  N       -0.1696500     1.2952110    -0.2577190
  C        1.7694220    -0.2160770    -0.5775760
  C        0.3234810     0.0737960    -0.3165740
  C        2.6425650     0.1799470     0.6157020
  C       -2.0089464    -0.0191063     0.2487915
  C       -1.5038950     1.2642780     0.0601800
  H        1.8995250    -1.2779630    -0.8129470
  H        2.0693290     0.3522120    -1.4641890
  H        2.5091790     1.2412210     0.8363590
  H        3.6994690    -0.0050250     0.4023620
  H        2.3648890    -0.3937430     1.5043860
  H       -3.0646880    -0.2455350     0.5019360
  H       -2.0550810     2.1952630     0.1367680
units angstrom
no_reorient  #important for SAPT in psi4, default
symmetry c1  #important for SAPT in psi4, default
}

set PROPERTIES_ORIGIN ["COM"]
properties('MP2/aug-cc-pvtz', properties = ['dipole'])
--------------------------------------------------------------------------

  Memory set to  29.802 GiB by Python driver.
    SCF Algorithm Type (re)set to DF.

*** tstart() called on c446-101.stampede2.tacc.utexas.edu
*** at Sat Mar 20 13:35:48 2021

   => Loading Basis Set <=

    Name: AUG-CC-PVTZ
    Role: ORBITAL
    Keyword: BASIS
    atoms 1    entry S          line   906 file /home1/07844/xy3866/miniconda3/envs/p4env/share/psi4/basis/aug-cc-pvtz.gbs 
    atoms 2    entry N          line   285 file /home1/07844/xy3866/miniconda3/envs/p4env/share/psi4/basis/aug-cc-pvtz.gbs 
    atoms 3-7  entry C          line   239 file /home1/07844/xy3866/miniconda3/envs/p4env/share/psi4/basis/aug-cc-pvtz.gbs 
    atoms 8-14 entry H          line    40 file /home1/07844/xy3866/miniconda3/envs/p4env/share/psi4/basis/aug-cc-pvtz.gbs 


         ---------------------------------------------------------
                                   SCF
               by Justin Turney, Rob Parrish, Andy Simmonett
                          and Daniel G. A. Smith
                              RHF Reference
                       32 Threads,  30517 MiB Core
         ---------------------------------------------------------

  ==> Geometry <==

    Molecular point group: c1
    Full point group: C1

    Geometry (in Angstrom), charge = 0, multiplicity = 1:

       Center              X                  Y                   Z               Mass       
    ------------   -----------------  -----------------  -----------------  -----------------
         S           -0.773737861814    -1.157671883876     0.040205785966    31.972071174400
         N           -0.108441861814     1.314964116124    -0.247309214034    14.003074004430
         C            1.830630138186    -0.196323883876    -0.567166214034    12.000000000000
         C            0.384689138186     0.093549116124    -0.306164214034    12.000000000000
         C            2.703773138186     0.199700116124     0.626111785966    12.000000000000
         C           -1.947738261814     0.000646816124     0.259201285966    12.000000000000
         C           -1.442686861814     1.284031116124     0.070589785966    12.000000000000
         H            1.960733138186    -1.258209883876    -0.802537214034     1.007825032230
         H            2.130537138186     0.371965116124    -1.453779214034     1.007825032230
         H            2.570387138186     1.260974116124     0.846768785966     1.007825032230
         H            3.760677138186     0.014728116124     0.412771785966     1.007825032230
         H            2.426097138186    -0.373989883876     1.514795785966     1.007825032230
         H           -3.003479861814    -0.225781883876     0.512345785966     1.007825032230
         H           -1.993872861814     2.215016116124     0.147177785966     1.007825032230

  Running in c1 symmetry.

  Rotational constants: A =      0.14786  B =      0.05900  C =      0.04627 [cm^-1]
  Rotational constants: A =   4432.70590  B =   1768.79912  C =   1387.25611 [MHz]
  Nuclear repulsion =  351.882374887316018

  Charge       = 0
  Multiplicity = 1
  Electrons    = 60
  Nalpha       = 30
  Nbeta        = 30

  ==> Algorithm <==

  SCF Algorithm Type is DF.
  DIIS enabled.
  MOM disabled.
  Fractional occupation disabled.
  Guess Type is SAD.
  Energy threshold   = 1.00e-10
  Density threshold  = 1.00e-10
  Integral threshold = 1.00e-12

  ==> Primary Basis <==

  Basis Set: AUG-CC-PVTZ
    Blend: AUG-CC-PVTZ
    Number of shells: 163
    Number of basis functions: 487
    Number of Cartesian functions: 564
    Spherical Harmonics?: true
    Max angular momentum: 3

   => Loading Basis Set <=

    Name: (AUG-CC-PVTZ AUX)
    Role: JKFIT
    Keyword: DF_BASIS_SCF
    atoms 1    entry S          line   730 file /home1/07844/xy3866/miniconda3/envs/p4env/share/psi4/basis/aug-cc-pvtz-jkfit.gbs 
    atoms 2    entry N          line   224 file /home1/07844/xy3866/miniconda3/envs/p4env/share/psi4/basis/aug-cc-pvtz-jkfit.gbs 
    atoms 3-7  entry C          line   162 file /home1/07844/xy3866/miniconda3/envs/p4env/share/psi4/basis/aug-cc-pvtz-jkfit.gbs 
    atoms 8-14 entry H          line    70 file /home1/07844/xy3866/miniconda3/envs/p4env/share/psi4/basis/aug-cc-pvtz-jkfit.gbs 

  ==> Integral Setup <==

  DFHelper Memory: AOs need 1.951 GiB; user supplied 22.352 GiB. Using in-core AOs.

  ==> MemDFJK: Density-Fitted J/K Matrices <==

    J tasked:                   Yes
    K tasked:                   Yes
    wK tasked:                   No
    OpenMP threads:              32
    Memory [MiB]:             22888
    Algorithm:                 Core
    Schwarz Cutoff:           1E-12
    Mask sparsity (%):       4.7671
    Fitting Condition:        1E-10

   => Auxiliary Basis Set <=

  Basis Set: (AUG-CC-PVTZ AUX)
    Blend: AUG-CC-PVTZ-JKFIT
    Number of shells: 320
    Number of basis functions: 1092
    Number of Cartesian functions: 1351
    Spherical Harmonics?: true
    Max angular momentum: 4

  Minimum eigenvalue in the overlap matrix is 7.8624559246E-06.
  Reciprocal condition number of the overlap matrix is 4.6583119330E-07.
    Using symmetric orthogonalization.

  ==> Pre-Iterations <==

  SCF Guess: Superposition of Atomic Densities via on-the-fly atomic UHF (no occupation information).

   -------------------------
    Irrep   Nso     Nmo    
   -------------------------
     A        487     487 
   -------------------------
    Total     487     487
   -------------------------

  ==> Iterations <==

                           Total Energy        Delta E     RMS |[F,P]|

   @DF-RHF iter SAD:  -645.14631428354949   -6.45146e+02   0.00000e+00 
   @DF-RHF iter   1:  -645.23137136877858   -8.50571e-02   1.30671e-03 DIIS
   @DF-RHF iter   2:  -645.39378448250500   -1.62413e-01   8.35481e-04 DIIS
   @DF-RHF iter   3:  -645.47493803267548   -8.11536e-02   1.75092e-04 DIIS
   @DF-RHF iter   4:  -645.48026086239531   -5.32283e-03   7.60818e-05 DIIS
   @DF-RHF iter   5:  -645.48135130355195   -1.09044e-03   1.80355e-05 DIIS
   @DF-RHF iter   6:  -645.48148799387218   -1.36690e-04   8.26958e-06 DIIS
   @DF-RHF iter   7:  -645.48152705361656   -3.90597e-05   3.46028e-06 DIIS
   @DF-RHF iter   8:  -645.48153386084539   -6.80723e-06   1.23996e-06 DIIS
   @DF-RHF iter   9:  -645.48153470546470   -8.44619e-07   4.00245e-07 DIIS
   @DF-RHF iter  10:  -645.48153477046333   -6.49986e-08   2.11949e-07 DIIS
   @DF-RHF iter  11:  -645.48153478349093   -1.30276e-08   7.30236e-08 DIIS
   @DF-RHF iter  12:  -645.48153478590928   -2.41835e-09   3.75725e-08 DIIS
   @DF-RHF iter  13:  -645.48153478642394   -5.14660e-10   1.08775e-08 DIIS
   @DF-RHF iter  14:  -645.48153478649863   -7.46923e-11   4.30370e-09 DIIS
   @DF-RHF iter  15:  -645.48153478650784   -9.20863e-12   1.55501e-09 DIIS
   @DF-RHF iter  16:  -645.48153478650977   -1.93268e-12   7.18014e-10 DIIS
   @DF-RHF iter  17:  -645.48153478651000   -2.27374e-13   1.69331e-10 DIIS
   @DF-RHF iter  18:  -645.48153478650897    1.02318e-12   7.49898e-11 DIIS
  Energy and wave function converged.


  ==> Post-Iterations <==

    Orbital Energies [Eh]
    ---------------------

    Doubly Occupied:                                                      

       1A    -91.995676     2A    -15.565657     3A    -11.309623  
       4A    -11.269534     5A    -11.261512     6A    -11.244735  
       7A    -11.223276     8A     -8.997355     9A     -6.678335  
      10A     -6.677754    11A     -6.676998    12A     -1.275903  
      13A     -1.072828    14A     -1.068826    15A     -0.971253  
      16A     -0.868396    17A     -0.788453    18A     -0.730552  
      19A     -0.679283    20A     -0.626347    21A     -0.601393  
      22A     -0.570989    23A     -0.555338    24A     -0.518288  
      25A     -0.513787    26A     -0.505230    27A     -0.497973  
      28A     -0.425449    29A     -0.391568    30A     -0.322637  

    Virtual:                                                              

      31A      0.029820    32A      0.031731    33A      0.040311  
      34A      0.042778    35A      0.049078    36A      0.055838  
      37A      0.064702    38A      0.080159    39A      0.087121  
      40A      0.095633    41A      0.098704    42A      0.103731  
      43A      0.108922    44A      0.114118    45A      0.116708  
      46A      0.120681    47A      0.126868    48A      0.132664  
      49A      0.133226    50A      0.138720    51A      0.144414  
      52A      0.152130    53A      0.154845    54A      0.161586  
      55A      0.165365    56A      0.176156    57A      0.180928  
      58A      0.190007    59A      0.192294    60A      0.200104  
      61A      0.206325    62A      0.214857    63A      0.224556  
      64A      0.237795    65A      0.238574    66A      0.253563  
      67A      0.258546    68A      0.265260    69A      0.273255  
      70A      0.276729    71A      0.287829    72A      0.292039  
      73A      0.297506    74A      0.307212    75A      0.310567  
      76A      0.321915    77A      0.332595    78A      0.337081  
      79A      0.342824    80A      0.345837    81A      0.347456  
      82A      0.355856    83A      0.368154    84A      0.371041  
      85A      0.374037    86A      0.385498    87A      0.387267  
      88A      0.391683    89A      0.399156    90A      0.402341  
      91A      0.412943    92A      0.420065    93A      0.420551  
      94A      0.427914    95A      0.432663    96A      0.438688  
      97A      0.443704    98A      0.449562    99A      0.456015  
     100A      0.461755   101A      0.467024   102A      0.470705  
     103A      0.476207   104A      0.477001   105A      0.489573  
     106A      0.493874   107A      0.498126   108A      0.508265  
     109A      0.509956   110A      0.515379   111A      0.521009  
     112A      0.530497   113A      0.534195   114A      0.541997  
     115A      0.548367   116A      0.553037   117A      0.564674  
     118A      0.569973   119A      0.574674   120A      0.583641  
     121A      0.591528   122A      0.600269   123A      0.606232  
     124A      0.613089   125A      0.624063   126A      0.632872  
     127A      0.647624   128A      0.650779   129A      0.669660  
     130A      0.674285   131A      0.686127   132A      0.704195  
     133A      0.715801   134A      0.727036   135A      0.738984  
     136A      0.747171   137A      0.761233   138A      0.769511  
     139A      0.774769   140A      0.786734   141A      0.796187  
     142A      0.800550   143A      0.808356   144A      0.820906  
     145A      0.826453   146A      0.839570   147A      0.847857  
     148A      0.855590   149A      0.859607   150A      0.863901  
     151A      0.876507   152A      0.889687   153A      0.890436  
     154A      0.895991   155A      0.898323   156A      0.905924  
     157A      0.913156   158A      0.915852   159A      0.923650  
     160A      0.936638   161A      0.940815   162A      0.946633  
     163A      0.953587   164A      0.960687   165A      0.968270  
     166A      0.981445   167A      0.988171   168A      0.990901  
     169A      0.993327   170A      1.007264   171A      1.011154  
     172A      1.023673   173A      1.028908   174A      1.047221  
     175A      1.049422   176A      1.053873   177A      1.059783  
     178A      1.074549   179A      1.077022   180A      1.088156  
     181A      1.094853   182A      1.105057   183A      1.112258  
     184A      1.123309   185A      1.126521   186A      1.127639  
     187A      1.132974   188A      1.146415   189A      1.156216  
     190A      1.157497   191A      1.166515   192A      1.183511  
     193A      1.186918   194A      1.199872   195A      1.203274  
     196A      1.207372   197A      1.209992   198A      1.222411  
     199A      1.227770   200A      1.251649   201A      1.255225  
     202A      1.262439   203A      1.267088   204A      1.282332  
     205A      1.289338   206A      1.303334   207A      1.315676  
     208A      1.329577   209A      1.350578   210A      1.355684  
     211A      1.357018   212A      1.373528   213A      1.384042  
     214A      1.390289   215A      1.410093   216A      1.415806  
     217A      1.424113   218A      1.431108   219A      1.468335  
     220A      1.475195   221A      1.483535   222A      1.494918  
     223A      1.515519   224A      1.516627   225A      1.521294  
     226A      1.532297   227A      1.540727   228A      1.561006  
     229A      1.563201   230A      1.570607   231A      1.584642  
     232A      1.619872   233A      1.624611   234A      1.628857  
     235A      1.645001   236A      1.652537   237A      1.654832  
     238A      1.665268   239A      1.683064   240A      1.686864  
     241A      1.693633   242A      1.703287   243A      1.715879  
     244A      1.725821   245A      1.743799   246A      1.756555  
     247A      1.763252   248A      1.789022   249A      1.792188  
     250A      1.797615   251A      1.799827   252A      1.821711  
     253A      1.827235   254A      1.832962   255A      1.848370  
     256A      1.859530   257A      1.881731   258A      1.898703  
     259A      1.906630   260A      1.918611   261A      1.931352  
     262A      1.952543   263A      1.954759   264A      1.971047  
     265A      1.985258   266A      1.987614   267A      2.003218  
     268A      2.022558   269A      2.029779   270A      2.037900  
     271A      2.057915   272A      2.078049   273A      2.099018  
     274A      2.102453   275A      2.104051   276A      2.129431  
     277A      2.138470   278A      2.147094   279A      2.163097  
     280A      2.184807   281A      2.201634   282A      2.219933  
     283A      2.225237   284A      2.234345   285A      2.248431  
     286A      2.254482   287A      2.257957   288A      2.264804  
     289A      2.305783   290A      2.309971   291A      2.324921  
     292A      2.346738   293A      2.362905   294A      2.377459  
     295A      2.393801   296A      2.404677   297A      2.424443  
     298A      2.432498   299A      2.439827   300A      2.449469  
     301A      2.459169   302A      2.497989   303A      2.527583  
     304A      2.551131   305A      2.576211   306A      2.600315  
     307A      2.636376   308A      2.644418   309A      2.657408  
     310A      2.679067   311A      2.703398   312A      2.735054  
     313A      2.743880   314A      2.769757   315A      2.817101  
     316A      2.858560   317A      2.875743   318A      2.895303  
     319A      2.934768   320A      2.975582   321A      2.986703  
     322A      3.056311   323A      3.114789   324A      3.124585  
     325A      3.180952   326A      3.187809   327A      3.235477  
     328A      3.259044   329A      3.282317   330A      3.294509  
     331A      3.311867   332A      3.328705   333A      3.380243  
     334A      3.398945   335A      3.421151   336A      3.422539  
     337A      3.452979   338A      3.490716   339A      3.502312  
     340A      3.516460   341A      3.538884   342A      3.546983  
     343A      3.556297   344A      3.561314   345A      3.600551  
     346A      3.617181   347A      3.642927   348A      3.663452  
     349A      3.671976   350A      3.685798   351A      3.695048  
     352A      3.713310   353A      3.724121   354A      3.739610  
     355A      3.755991   356A      3.763260   357A      3.776302  
     358A      3.789687   359A      3.808190   360A      3.833385  
     361A      3.843279   362A      3.862035   363A      3.864563  
     364A      3.879770   365A      3.881010   366A      3.891132  
     367A      3.898872   368A      3.926248   369A      3.950939  
     370A      3.959099   371A      3.974221   372A      3.986933  
     373A      4.002137   374A      4.006006   375A      4.016875  
     376A      4.024282   377A      4.049025   378A      4.069494  
     379A      4.081232   380A      4.094904   381A      4.106314  
     382A      4.143524   383A      4.146214   384A      4.170763  
     385A      4.176181   386A      4.192445   387A      4.210230  
     388A      4.214498   389A      4.219120   390A      4.254539  
     391A      4.273690   392A      4.288828   393A      4.316259  
     394A      4.322307   395A      4.353532   396A      4.368948  
     397A      4.388912   398A      4.392503   399A      4.427322  
     400A      4.435275   401A      4.463393   402A      4.482748  
     403A      4.494156   404A      4.509614   405A      4.556585  
     406A      4.570538   407A      4.593533   408A      4.633131  
     409A      4.653959   410A      4.659172   411A      4.689718  
     412A      4.721890   413A      4.738450   414A      4.790453  
     415A      4.794757   416A      4.831172   417A      4.845862  
     418A      4.866223   419A      4.870848   420A      4.890733  
     421A      4.913438   422A      4.924534   423A      4.936244  
     424A      4.953470   425A      4.980994   426A      5.004861  
     427A      5.058434   428A      5.077647   429A      5.096669  
     430A      5.121015   431A      5.122871   432A      5.158498  
     433A      5.161155   434A      5.183002   435A      5.211956  
     436A      5.249237   437A      5.263193   438A      5.289592  
     439A      5.325556   440A      5.377105   441A      5.382853  
     442A      5.412758   443A      5.440771   444A      5.448427  
     445A      5.456039   446A      5.525943   447A      5.545449  
     448A      5.569851   449A      5.605419   450A      5.620764  
     451A      5.661969   452A      5.676551   453A      5.704693  
     454A      5.755999   455A      5.786649   456A      5.796683  
     457A      5.809823   458A      5.839453   459A      5.885505  
     460A      5.917957   461A      5.998159   462A      6.025742  
     463A      6.060113   464A      6.090023   465A      6.161408  
     466A      6.180816   467A      6.207993   468A      6.221817  
     469A      6.241317   470A      6.270155   471A      6.458827  
     472A      6.526992   473A      6.567945   474A      6.676852  
     475A      6.739545   476A      6.770219   477A      6.823632  
     478A      6.901366   479A      6.938348   480A      7.064072  
     481A      8.967326   482A     15.567085   483A     15.706682  
     484A     16.099363   485A     17.639297   486A     17.979659  
     487A     19.457551  

    Final Occupation by Irrep:
              A 
    DOCC [    30 ]

  @DF-RHF Final Energy:  -645.48153478650897

   => Energetics <=

    Nuclear Repulsion Energy =            351.8823748873160184
    One-Electron Energy =               -1582.9579195162100405
    Two-Electron Energy =                 585.5940098423850486
    Total Energy =                       -645.4815347865089734

Computation Completed

*** tstop() called on c446-101.stampede2.tacc.utexas.edu at Sat Mar 20 13:36:12 2021
Module time:
	user time   =     345.74 seconds =       5.76 minutes
	system time =      32.46 seconds =       0.54 minutes
	total time  =         24 seconds =       0.40 minutes
Total time:
	user time   =     345.74 seconds =       5.76 minutes
	system time =      32.46 seconds =       0.54 minutes
	total time  =         24 seconds =       0.40 minutes
   => Loading Basis Set <=

    Name: (AUG-CC-PVTZ AUX)
    Role: RIFIT
    Keyword: DF_BASIS_MP2
    atoms 1    entry S          line   666 file /home1/07844/xy3866/miniconda3/envs/p4env/share/psi4/basis/aug-cc-pvtz-ri.gbs 
    atoms 2    entry N          line   206 file /home1/07844/xy3866/miniconda3/envs/p4env/share/psi4/basis/aug-cc-pvtz-ri.gbs 
    atoms 3-7  entry C          line   148 file /home1/07844/xy3866/miniconda3/envs/p4env/share/psi4/basis/aug-cc-pvtz-ri.gbs 
    atoms 8-14 entry H          line    30 file /home1/07844/xy3866/miniconda3/envs/p4env/share/psi4/basis/aug-cc-pvtz-ri.gbs 


*** tstart() called on c446-101.stampede2.tacc.utexas.edu
*** at Sat Mar 20 13:36:13 2021


  //>>>>>>>>>>>>>>>>>>>>>>>>>>>>>>>>>>>//
  //               DFMP2               //
  //<<<<<<<<<<<<<<<<<<<<<<<<<<<<<<<<<<<//

	 --------------------------------------------------------
	                          DF-MP2                         
	      2nd-Order Density-Fitted Moller-Plesset Theory     
	              RMP2 Wavefunction,  32 Threads             
	                                                         
	        Rob Parrish, Justin Turney, Andy Simmonett,      
	           Ed Hohenstein, and C. David Sherrill          
	 --------------------------------------------------------

   => Auxiliary Basis Set <=

  Basis Set: (AUG-CC-PVTZ AUX)
    Blend: AUG-CC-PVTZ-RI
    Number of shells: 303
    Number of basis functions: 1105
    Number of Cartesian functions: 1392
    Spherical Harmonics?: true
    Max angular momentum: 4

	 --------------------------------------------------------
	                 NBF =   487, NAUX =  1105
	 --------------------------------------------------------
	   CLASS    FOCC     OCC    AOCC    AVIR     VIR    FVIR
	   PAIRS       0      30      30     457     457       0
	 --------------------------------------------------------

  DFHelper Memory: AOs need 1.986 GiB; user supplied 22.352 GiB. Using in-core AOs.


         ------------------------------------------------------------
                                     CPHF                           
                                  Rob Parrish                       
         ------------------------------------------------------------

  ==> Geometry <==

    Molecular point group: c1
    Full point group: C1

    Geometry (in Angstrom), charge = 0, multiplicity = 1:

       Center              X                  Y                   Z               Mass       
    ------------   -----------------  -----------------  -----------------  -----------------
         S           -0.773737861814    -1.157671883876     0.040205785966    31.972071174400
         N           -0.108441861814     1.314964116124    -0.247309214034    14.003074004430
         C            1.830630138186    -0.196323883876    -0.567166214034    12.000000000000
         C            0.384689138186     0.093549116124    -0.306164214034    12.000000000000
         C            2.703773138186     0.199700116124     0.626111785966    12.000000000000
         C           -1.947738261814     0.000646816124     0.259201285966    12.000000000000
         C           -1.442686861814     1.284031116124     0.070589785966    12.000000000000
         H            1.960733138186    -1.258209883876    -0.802537214034     1.007825032230
         H            2.130537138186     0.371965116124    -1.453779214034     1.007825032230
         H            2.570387138186     1.260974116124     0.846768785966     1.007825032230
         H            3.760677138186     0.014728116124     0.412771785966     1.007825032230
         H            2.426097138186    -0.373989883876     1.514795785966     1.007825032230
         H           -3.003479861814    -0.225781883876     0.512345785966     1.007825032230
         H           -1.993872861814     2.215016116124     0.147177785966     1.007825032230

  Nuclear repulsion =  351.882374887316018
  Reference energy  = -645.481534786508973

  ==> Basis Set <==

  Basis Set: AUG-CC-PVTZ
    Blend: AUG-CC-PVTZ
    Number of shells: 163
    Number of basis functions: 487
    Number of Cartesian functions: 564
    Spherical Harmonics?: true
    Max angular momentum: 3

  ==> CGRSolver (by Rob Parrish) <==

   Number of roots    =         1
   Preconditioning    =    JACOBI
   Convergence cutoff =     1E-06
   Maximum iterations =       100

  ==> CPHFRHamiltonian (by Rob Parrish) <== 

  ==> MemDFJK: Density-Fitted J/K Matrices <==

    J tasked:                   Yes
    K tasked:                   Yes
    wK tasked:                   No
    OpenMP threads:              32
    Memory [MiB]:             22888
    Algorithm:                 Core
    Schwarz Cutoff:           1E-12
    Mask sparsity (%):       2.9481
    Fitting Condition:        1E-10

   => Auxiliary Basis Set <=

  Basis Set: (AUG-CC-PVTZ AUX)
    Blend: AUG-CC-PVTZ-JKFIT
    Number of shells: 320
    Number of basis functions: 1092
    Number of Cartesian functions: 1351
    Spherical Harmonics?: true
    Max angular momentum: 4

  ==> CPHF Iterations <==

  => Iterations <=

             Iter  Converged  Remaining    Residual
  CGR           1          0          1   1.297E-01
  CGR           2          0          1   4.627E-02
  CGR           3          0          1   2.532E-02
  CGR           4          0          1   9.224E-03
  CGR           5          0          1   3.089E-03
  CGR           6          0          1   1.275E-03
  CGR           7          0          1   5.084E-04
  CGR           8          0          1   2.163E-04
  CGR           9          0          1   8.021E-05
  CGR          10          0          1   3.385E-05
  CGR          11          0          1   1.184E-05
  CGR          12          0          1   3.635E-06
  CGR          13          1          0   8.664E-07

    CGRSolver converged.

	-----------------------------------------------------------
	 ==================> DF-MP2 Energies <==================== 
	-----------------------------------------------------------
	 Reference Energy          =    -645.4815347865089734 [Eh]
	 Singles Energy            =      -0.0000000000000000 [Eh]
	 Same-Spin Energy          =      -0.3334876935163705 [Eh]
	 Opposite-Spin Energy      =      -1.0406822348082798 [Eh]
	 Correlation Energy        =      -1.3741699283246502 [Eh]
	 Total Energy              =    -646.8557047148336778 [Eh]
	-----------------------------------------------------------
	 ================> DF-SCS-MP2 Energies <================== 
	-----------------------------------------------------------
	 SCS Same-Spin Scale       =       0.3333333333333333 [-]
	 SCS Opposite-Spin Scale   =       1.2000000000000000 [-]
	 SCS Same-Spin Energy      =      -0.1111625645054568 [Eh]
	 SCS Opposite-Spin Energy  =      -1.2488186817699358 [Eh]
	 SCS Correlation Energy    =      -1.3599812462753926 [Eh]
	 SCS Total Energy          =    -646.8415160327843978 [Eh]
	-----------------------------------------------------------



Properties will be evaluated at  -0.000000,   0.000000,  -0.000000 [a0]

Properties computed using the MP2 density matrix

  Nuclear Dipole Moment: [e a0]
     X:     7.3400      Y:     1.8450      Z:     1.1057

  Electronic Dipole Moment: [e a0]
     X:    -7.4769      Y:    -2.3565      Z:    -1.0009

  Dipole Moment: [e a0]
     X:    -0.1368      Y:    -0.5115      Z:     0.1048     Total:     0.5397

  Dipole Moment: [D]
     X:    -0.3478      Y:    -1.3001      Z:     0.2663     Total:     1.3719


*** tstop() called on c446-101.stampede2.tacc.utexas.edu at Sat Mar 20 13:38:36 2021
Module time:
	user time   =     862.76 seconds =      14.38 minutes
	system time =      37.24 seconds =       0.62 minutes
	total time  =        143 seconds =       2.38 minutes
Total time:
	user time   =    1209.21 seconds =      20.15 minutes
	system time =      69.72 seconds =       1.16 minutes
	total time  =        168 seconds =       2.80 minutes

    Psi4 stopped on: Saturday, 20 March 2021 01:38PM
    Psi4 wall time for execution: 0:02:48.15

*** Psi4 exiting successfully. Buy a developer a beer!
