
    -----------------------------------------------------------------------
          Psi4: An Open-Source Ab Initio Electronic Structure Package
                               Psi4 1.3.2 release

                         Git: Rev {HEAD} ecbda83 


    R. M. Parrish, L. A. Burns, D. G. A. Smith, A. C. Simmonett,
    A. E. DePrince III, E. G. Hohenstein, U. Bozkaya, A. Yu. Sokolov,
    R. Di Remigio, R. M. Richard, J. F. Gonthier, A. M. James,
    H. R. McAlexander, A. Kumar, M. Saitow, X. Wang, B. P. Pritchard,
    P. Verma, H. F. Schaefer III, K. Patkowski, R. A. King, E. F. Valeev,
    F. A. Evangelista, J. M. Turney, T. D. Crawford, and C. D. Sherrill,
    J. Chem. Theory Comput. 13(7) pp 3185--3197 (2017).
    (doi: 10.1021/acs.jctc.7b00174)


                         Additional Contributions by
    P. Kraus, H. Kruse, M. H. Lechner, M. C. Schieber, R. A. Shaw,
    A. Alenaizan, R. Galvelis, Z. L. Glick, S. Lehtola, and J. P. Misiewicz

    -----------------------------------------------------------------------


    Psi4 started on: Tuesday, 02 February 2021 09:11PM

    Process ID: 1992606
    Host:       node58.bme.utexas.edu
    PSIDATADIR: /home/xy3866/psi4conda/share/psi4
    Memory:     500.0 MiB
    Threads:    8
    
  ==> Input File <==

--------------------------------------------------------------------------
#psi4
#
memory 32 gb

molecule  {
0 1
  S       -0.8349460    -1.1774250     0.0297960
  N       -0.1696500     1.2952110    -0.2577190
  C        1.7694220    -0.2160770    -0.5775760
  C        0.3234810     0.0737960    -0.3165740
  C        2.6425650     0.1799470     0.6157020
  C       -2.0442290     0.0157050     0.2553730
  C       -1.5907869     1.3009421     0.0777452
  H        1.8995250    -1.2779630    -0.8129470
  H        2.0693290     0.3522120    -1.4641890
  H        2.5091790     1.2412210     0.8363590
  H        3.6994690    -0.0050250     0.4023620
  H        2.3648890    -0.3937430     1.5043860
  H       -3.0646880    -0.2455350     0.5019360
  H       -2.0550810     2.1952630     0.1367680
units angstrom
no_reorient  #important for SAPT in psi4, default
symmetry c1  #important for SAPT in psi4, default
}

set PROPERTIES_ORIGIN ["COM"]
properties('MP2/aug-cc-pvtz', properties = ['dipole'])
--------------------------------------------------------------------------

  Memory set to  29.802 GiB by Python driver.
    SCF Algorithm Type (re)set to DF.

*** tstart() called on node58.bme.utexas.edu
*** at Tue Feb  2 21:11:55 2021

   => Loading Basis Set <=

    Name: AUG-CC-PVTZ
    Role: ORBITAL
    Keyword: BASIS
    atoms 1    entry S          line   902 file /home/xy3866/psi4conda/share/psi4/basis/aug-cc-pvtz.gbs 
    atoms 2    entry N          line   281 file /home/xy3866/psi4conda/share/psi4/basis/aug-cc-pvtz.gbs 
    atoms 3-7  entry C          line   235 file /home/xy3866/psi4conda/share/psi4/basis/aug-cc-pvtz.gbs 
    atoms 8-14 entry H          line    36 file /home/xy3866/psi4conda/share/psi4/basis/aug-cc-pvtz.gbs 


         ---------------------------------------------------------
                                   SCF
               by Justin Turney, Rob Parrish, Andy Simmonett
                          and Daniel G. A. Smith
                              RHF Reference
                        8 Threads,  30517 MiB Core
         ---------------------------------------------------------

  ==> Geometry <==

    Molecular point group: c1
    Full point group: C1

    Geometry (in Angstrom), charge = 0, multiplicity = 1:

       Center              X                  Y                   Z               Mass       
    ------------   -----------------  -----------------  -----------------  -----------------
         S           -0.760767013080    -1.165260182593     0.037642213427    31.972071174400
         N           -0.095471013080     1.307375817407    -0.249872786573    14.003074004430
         C            1.843600986920    -0.203912182593    -0.569729786573    12.000000000000
         C            0.397659986920     0.085960817407    -0.308727786573    12.000000000000
         C            2.716743986920     0.192111817407     0.623548213427    12.000000000000
         C           -1.970050013080     0.027869817407     0.263219213427    12.000000000000
         C           -1.516607913080     1.313106917407     0.085591413427    12.000000000000
         H            1.973703986920    -1.265798182593    -0.805100786573     1.007825032230
         H            2.143507986920     0.364376817407    -1.456342786573     1.007825032230
         H            2.583357986920     1.253385817407     0.844205213427     1.007825032230
         H            3.773647986920     0.007139817407     0.410208213427     1.007825032230
         H            2.439067986920    -0.381578182593     1.512232213427     1.007825032230
         H           -2.990509013080    -0.233370182593     0.509782213427     1.007825032230
         H           -1.980902013080     2.207427817407     0.144614213427     1.007825032230

  Running in c1 symmetry.

  Rotational constants: A =      0.14618  B =      0.05804  C =      0.04554 [cm^-1]
  Rotational constants: A =   4382.42883  B =   1739.89792  C =   1365.17530 [MHz]
  Nuclear repulsion =  349.158728943781853

  Charge       = 0
  Multiplicity = 1
  Electrons    = 60
  Nalpha       = 30
  Nbeta        = 30

  ==> Algorithm <==

  SCF Algorithm Type is DF.
  DIIS enabled.
  MOM disabled.
  Fractional occupation disabled.
  Guess Type is SAD.
  Energy threshold   = 1.00e-10
  Density threshold  = 1.00e-10
  Integral threshold = 0.00e+00

  ==> Primary Basis <==

  Basis Set: AUG-CC-PVTZ
    Blend: AUG-CC-PVTZ
    Number of shells: 163
    Number of basis function: 487
    Number of Cartesian functions: 564
    Spherical Harmonics?: true
    Max angular momentum: 3

   => Loading Basis Set <=

    Name: (AUG-CC-PVTZ AUX)
    Role: JKFIT
    Keyword: DF_BASIS_SCF
    atoms 1    entry S          line   730 file /home/xy3866/psi4conda/share/psi4/basis/aug-cc-pvtz-jkfit.gbs 
    atoms 2    entry N          line   224 file /home/xy3866/psi4conda/share/psi4/basis/aug-cc-pvtz-jkfit.gbs 
    atoms 3-7  entry C          line   162 file /home/xy3866/psi4conda/share/psi4/basis/aug-cc-pvtz-jkfit.gbs 
    atoms 8-14 entry H          line    70 file /home/xy3866/psi4conda/share/psi4/basis/aug-cc-pvtz-jkfit.gbs 

  ==> Pre-Iterations <==

   -------------------------------------------------------
    Irrep   Nso     Nmo     Nalpha   Nbeta   Ndocc  Nsocc
   -------------------------------------------------------
     A        487     487       0       0       0       0
   -------------------------------------------------------
    Total     487     487      30      30      30       0
   -------------------------------------------------------

  ==> Integral Setup <==

  DFHelper Memory: AOs need 1.942 GiB; user supplied 22.352 GiB. Using in-core AOs.

  ==> MemDFJK: Density-Fitted J/K Matrices <==

    J tasked:                   Yes
    K tasked:                   Yes
    wK tasked:                   No
    OpenMP threads:               8
    Memory [MiB]:             22888
    Algorithm:                 Disk
    Schwarz Cutoff:           1E-12
    Mask sparsity (%):       3.0485
    Fitting Condition:        1E-10

   => Auxiliary Basis Set <=

  Basis Set: (AUG-CC-PVTZ AUX)
    Blend: AUG-CC-PVTZ-JKFIT
    Number of shells: 320
    Number of basis function: 1092
    Number of Cartesian functions: 1351
    Spherical Harmonics?: true
    Max angular momentum: 4

  Minimum eigenvalue in the overlap matrix is 7.7643976843E-06.
  Using Symmetric Orthogonalization.

  SCF Guess: Superposition of Atomic Densities via on-the-fly atomic UHF.

  ==> Iterations <==

                           Total Energy        Delta E     RMS |[F,P]|

   @DF-RHF iter SAD:  -644.95611504785813   -6.44956e+02   0.00000e+00 
   @DF-RHF iter   1:  -645.22955363102858   -2.73439e-01   1.28584e-03 DIIS
   @DF-RHF iter   2:  -645.39001201462384   -1.60458e-01   8.17776e-04 DIIS
   @DF-RHF iter   3:  -645.46761914046726   -7.76071e-02   1.77385e-04 DIIS
   @DF-RHF iter   4:  -645.47310774240259   -5.48860e-03   7.72316e-05 DIIS
   @DF-RHF iter   5:  -645.47425848872695   -1.15075e-03   1.88278e-05 DIIS
   @DF-RHF iter   6:  -645.47441131028199   -1.52822e-04   8.51297e-06 DIIS
   @DF-RHF iter   7:  -645.47445343823722   -4.21280e-05   3.49223e-06 DIIS
   @DF-RHF iter   8:  -645.47445953890281   -6.10067e-06   1.17146e-06 DIIS
   @DF-RHF iter   9:  -645.47446018190499   -6.43002e-07   4.04800e-07 DIIS
   @DF-RHF iter  10:  -645.47446022592578   -4.40208e-08   1.45994e-07 DIIS
   @DF-RHF iter  11:  -645.47446023217583   -6.25005e-09   5.47580e-08 DIIS
   @DF-RHF iter  12:  -645.47446023310681   -9.30982e-10   2.17734e-08 DIIS
   @DF-RHF iter  13:  -645.47446023326609   -1.59275e-10   5.36737e-09 DIIS
   @DF-RHF iter  14:  -645.47446023327984   -1.37561e-11   1.72127e-09 DIIS
   @DF-RHF iter  15:  -645.47446023327552    4.32010e-12   8.92216e-10 DIIS
   @DF-RHF iter  16:  -645.47446023328064   -5.11591e-12   3.69069e-10 DIIS
   @DF-RHF iter  17:  -645.47446023327586    4.77485e-12   1.80620e-10 DIIS
   @DF-RHF iter  18:  -645.47446023327893   -3.06954e-12   6.71004e-11 DIIS
  Energy and wave function converged.


  ==> Post-Iterations <==

    Orbital Energies [Eh]
    ---------------------

    Doubly Occupied:                                                      

       1A    -91.993777     2A    -15.567245     3A    -11.311105  
       4A    -11.270260     5A    -11.266848     6A    -11.245626  
       7A    -11.223650     8A     -8.994695     9A     -6.675675  
      10A     -6.675038    11A     -6.674301    12A     -1.253645  
      13A     -1.071392    14A     -1.053510    15A     -0.979658  
      16A     -0.871862    17A     -0.793443    18A     -0.725415  
      19A     -0.686447    20A     -0.627397    21A     -0.602381  
      22A     -0.568454    23A     -0.550137    24A     -0.518640  
      25A     -0.513233    26A     -0.510647    27A     -0.496307  
      28A     -0.414712    29A     -0.380246    30A     -0.335044  

    Virtual:                                                              

      31A      0.029752    32A      0.031729    33A      0.040125  
      34A      0.042966    35A      0.048995    36A      0.056043  
      37A      0.064893    38A      0.080469    39A      0.087408  
      40A      0.095861    41A      0.101771    42A      0.103344  
      43A      0.108549    44A      0.113098    45A      0.116947  
      46A      0.120776    47A      0.126785    48A      0.132660  
      49A      0.133218    50A      0.138682    51A      0.144559  
      52A      0.151448    53A      0.155427    54A      0.160839  
      55A      0.165714    56A      0.176009    57A      0.178198  
      58A      0.187469    59A      0.191220    60A      0.200280  
      61A      0.204012    62A      0.214939    63A      0.223405  
      64A      0.235669    65A      0.239480    66A      0.252875  
      67A      0.259014    68A      0.264706    69A      0.273791  
      70A      0.274794    71A      0.289482    72A      0.293890  
      73A      0.297357    74A      0.307499    75A      0.308748  
      76A      0.321211    77A      0.331467    78A      0.336650  
      79A      0.343116    80A      0.343701    81A      0.347398  
      82A      0.357262    83A      0.368224    84A      0.371766  
      85A      0.373825    86A      0.385172    87A      0.386685  
      88A      0.391235    89A      0.399508    90A      0.401659  
      91A      0.413189    92A      0.419213    93A      0.422003  
      94A      0.427718    95A      0.432541    96A      0.435738  
      97A      0.439199    98A      0.447901    99A      0.455462  
     100A      0.461803   101A      0.463891   102A      0.470420  
     103A      0.473405   104A      0.475828   105A      0.489184  
     106A      0.494188   107A      0.498563   108A      0.504991  
     109A      0.507818   110A      0.515130   111A      0.519550  
     112A      0.526997   113A      0.533508   114A      0.541507  
     115A      0.548888   116A      0.555259   117A      0.566196  
     118A      0.569008   119A      0.575088   120A      0.581772  
     121A      0.592690   122A      0.599358   123A      0.605611  
     124A      0.611132   125A      0.627370   126A      0.633207  
     127A      0.644871   128A      0.649107   129A      0.662043  
     130A      0.669879   131A      0.678688   132A      0.703669  
     133A      0.716272   134A      0.721770   135A      0.737476  
     136A      0.746434   137A      0.760648   138A      0.772780  
     139A      0.775299   140A      0.785516   141A      0.795380  
     142A      0.802572   143A      0.810003   144A      0.822395  
     145A      0.829419   146A      0.836234   147A      0.847045  
     148A      0.852825   149A      0.856945   150A      0.866412  
     151A      0.867725   152A      0.888481   153A      0.889702  
     154A      0.892951   155A      0.897152   156A      0.903929  
     157A      0.906962   158A      0.913703   159A      0.923656  
     160A      0.930784   161A      0.937762   162A      0.944591  
     163A      0.951789   164A      0.956173   165A      0.966872  
     166A      0.976829   167A      0.983035   168A      0.988164  
     169A      0.991704   170A      1.005036   171A      1.009828  
     172A      1.022112   173A      1.026467   174A      1.046678  
     175A      1.049525   176A      1.054861   177A      1.058869  
     178A      1.069503   179A      1.074378   180A      1.087211  
     181A      1.094389   182A      1.103175   183A      1.105709  
     184A      1.116241   185A      1.127032   186A      1.127194  
     187A      1.132453   188A      1.147161   189A      1.157599  
     190A      1.161931   191A      1.168116   192A      1.189391  
     193A      1.191682   194A      1.200725   195A      1.204350  
     196A      1.210658   197A      1.217073   198A      1.224843  
     199A      1.230550   200A      1.251960   201A      1.258057  
     202A      1.262989   203A      1.271646   204A      1.282998  
     205A      1.289534   206A      1.302347   207A      1.313393  
     208A      1.329540   209A      1.352672   210A      1.358089  
     211A      1.360573   212A      1.371438   213A      1.380576  
     214A      1.390553   215A      1.402951   216A      1.415064  
     217A      1.426425   218A      1.432583   219A      1.468672  
     220A      1.476798   221A      1.481714   222A      1.489292  
     223A      1.510126   224A      1.515244   225A      1.519260  
     226A      1.529395   227A      1.536812   228A      1.554091  
     229A      1.564533   230A      1.577464   231A      1.584761  
     232A      1.620501   233A      1.622027   234A      1.628202  
     235A      1.647798   236A      1.651768   237A      1.658702  
     238A      1.665195   239A      1.683282   240A      1.685510  
     241A      1.694042   242A      1.702633   243A      1.712047  
     244A      1.728672   245A      1.738393   246A      1.757850  
     247A      1.762390   248A      1.783259   249A      1.788846  
     250A      1.791377   251A      1.798950   252A      1.816835  
     253A      1.826578   254A      1.832815   255A      1.844287  
     256A      1.855878   257A      1.878669   258A      1.895934  
     259A      1.897622   260A      1.913618   261A      1.929886  
     262A      1.950668   263A      1.955754   264A      1.970392  
     265A      1.981193   266A      1.987019   267A      2.001567  
     268A      2.016166   269A      2.025539   270A      2.034409  
     271A      2.048819   272A      2.071746   273A      2.093781  
     274A      2.096823   275A      2.105114   276A      2.115159  
     277A      2.133508   278A      2.146316   279A      2.160276  
     280A      2.184167   281A      2.196013   282A      2.206435  
     283A      2.223834   284A      2.234691   285A      2.242070  
     286A      2.252065   287A      2.264109   288A      2.267822  
     289A      2.300610   290A      2.307951   291A      2.317889  
     292A      2.345055   293A      2.366938   294A      2.376755  
     295A      2.393804   296A      2.399103   297A      2.421677  
     298A      2.427151   299A      2.437464   300A      2.437852  
     301A      2.467049   302A      2.492873   303A      2.515727  
     304A      2.546687   305A      2.568388   306A      2.585897  
     307A      2.617151   308A      2.630605   309A      2.650709  
     310A      2.665576   311A      2.701256   312A      2.727508  
     313A      2.735199   314A      2.756064   315A      2.799620  
     316A      2.840625   317A      2.841892   318A      2.884183  
     319A      2.922584   320A      2.960338   321A      2.983372  
     322A      3.008399   323A      3.089086   324A      3.129288  
     325A      3.147483   326A      3.181815   327A      3.213246  
     328A      3.239757   329A      3.262737   330A      3.284234  
     331A      3.306147   332A      3.322390   333A      3.375871  
     334A      3.392405   335A      3.412887   336A      3.420587  
     337A      3.452110   338A      3.477131   339A      3.489456  
     340A      3.513136   341A      3.529423   342A      3.547527  
     343A      3.554184   344A      3.570379   345A      3.594815  
     346A      3.619721   347A      3.639073   348A      3.656358  
     349A      3.665191   350A      3.677062   351A      3.694106  
     352A      3.710015   353A      3.727479   354A      3.736089  
     355A      3.747267   356A      3.751595   357A      3.772453  
     358A      3.779643   359A      3.801162   360A      3.818689  
     361A      3.831703   362A      3.840582   363A      3.855045  
     364A      3.864479   365A      3.878474   366A      3.887441  
     367A      3.890393   368A      3.915213   369A      3.938166  
     370A      3.952750   371A      3.969898   372A      3.981955  
     373A      3.998312   374A      4.000439   375A      4.015219  
     376A      4.023252   377A      4.033344   378A      4.063386  
     379A      4.081470   380A      4.109763   381A      4.114592  
     382A      4.133929   383A      4.145310   384A      4.174090  
     385A      4.195583   386A      4.201010   387A      4.208129  
     388A      4.215691   389A      4.221178   390A      4.256155  
     391A      4.269064   392A      4.276955   393A      4.319525  
     394A      4.320490   395A      4.348220   396A      4.376684  
     397A      4.379372   398A      4.402599   399A      4.416335  
     400A      4.446977   401A      4.454822   402A      4.471542  
     403A      4.496053   404A      4.510796   405A      4.541130  
     406A      4.561454   407A      4.601005   408A      4.627263  
     409A      4.653944   410A      4.685350   411A      4.706392  
     412A      4.713900   413A      4.743634   414A      4.783687  
     415A      4.796349   416A      4.832250   417A      4.856059  
     418A      4.865560   419A      4.894423   420A      4.897703  
     421A      4.920738   422A      4.934107   423A      4.950604  
     424A      4.970926   425A      4.994575   426A      5.003473  
     427A      5.080593   428A      5.094837   429A      5.110007  
     430A      5.128088   431A      5.147768   432A      5.169132  
     433A      5.185820   434A      5.203353   435A      5.231336  
     436A      5.243052   437A      5.286168   438A      5.324799  
     439A      5.333769   440A      5.379732   441A      5.384757  
     442A      5.412787   443A      5.446257   444A      5.454472  
     445A      5.480260   446A      5.560154   447A      5.575320  
     448A      5.613834   449A      5.617414   450A      5.645502  
     451A      5.667005   452A      5.693267   453A      5.715265  
     454A      5.757905   455A      5.790038   456A      5.805072  
     457A      5.812965   458A      5.855380   459A      5.892881  
     460A      5.906363   461A      5.996009   462A      6.014702  
     463A      6.042290   464A      6.088840   465A      6.169936  
     466A      6.178881   467A      6.213994   468A      6.236381  
     469A      6.257837   470A      6.264484   471A      6.449065  
     472A      6.510788   473A      6.569004   474A      6.673845  
     475A      6.739524   476A      6.765345   477A      6.814666  
     478A      6.893093   479A      6.983674   480A      7.003009  
     481A      8.710261   482A     15.326004   483A     15.804800  
     484A     16.343109   485A     17.834085   486A     18.091736  
     487A     19.409854  

    Final Occupation by Irrep:
              A 
    DOCC [    30 ]

  @DF-RHF Final Energy:  -645.47446023327893

   => Energetics <=

    Nuclear Repulsion Energy =            349.1587289437818526
    One-Electron Energy =               -1577.5648039557004267
    Two-Electron Energy =                 582.9316147786396414
    Total Energy =                       -645.4744602332789327

Computation Completed

*** tstop() called on node58.bme.utexas.edu at Tue Feb  2 21:12:24 2021
Module time:
	user time   =     143.23 seconds =       2.39 minutes
	system time =      17.68 seconds =       0.29 minutes
	total time  =         29 seconds =       0.48 minutes
Total time:
	user time   =     143.23 seconds =       2.39 minutes
	system time =      17.68 seconds =       0.29 minutes
	total time  =         29 seconds =       0.48 minutes
   => Loading Basis Set <=

    Name: (AUG-CC-PVTZ AUX)
    Role: RIFIT
    Keyword: DF_BASIS_MP2
    atoms 1    entry S          line   666 file /home/xy3866/psi4conda/share/psi4/basis/aug-cc-pvtz-ri.gbs 
    atoms 2    entry N          line   206 file /home/xy3866/psi4conda/share/psi4/basis/aug-cc-pvtz-ri.gbs 
    atoms 3-7  entry C          line   148 file /home/xy3866/psi4conda/share/psi4/basis/aug-cc-pvtz-ri.gbs 
    atoms 8-14 entry H          line    30 file /home/xy3866/psi4conda/share/psi4/basis/aug-cc-pvtz-ri.gbs 


*** tstart() called on node58.bme.utexas.edu
*** at Tue Feb  2 21:12:24 2021


  //>>>>>>>>>>>>>>>>>>>>>>>>>>>>>>>>>>>//
  //               DFMP2               //
  //<<<<<<<<<<<<<<<<<<<<<<<<<<<<<<<<<<<//

	 --------------------------------------------------------
	                          DF-MP2                         
	      2nd-Order Density-Fitted Moller-Plesset Theory     
	              RMP2 Wavefunction,   8 Threads             
	                                                         
	        Rob Parrish, Justin Turney, Andy Simmonett,      
	           Ed Hohenstein, and C. David Sherrill          
	 --------------------------------------------------------

   => Auxiliary Basis Set <=

  Basis Set: (AUG-CC-PVTZ AUX)
    Blend: AUG-CC-PVTZ-RI
    Number of shells: 303
    Number of basis function: 1105
    Number of Cartesian functions: 1392
    Spherical Harmonics?: true
    Max angular momentum: 4

	 --------------------------------------------------------
	                 NBF =   487, NAUX =  1105
	 --------------------------------------------------------
	   CLASS    FOCC     OCC    AOCC    AVIR     VIR    FVIR
	   PAIRS       0      30      30     457     457       0
	 --------------------------------------------------------

  DFHelper Memory: AOs need 1.942 GiB; user supplied 22.352 GiB. Using in-core AOs.


         ------------------------------------------------------------
                                     CPHF                           
                                  Rob Parrish                       
         ------------------------------------------------------------

  ==> Geometry <==

    Molecular point group: c1
    Full point group: C1

    Geometry (in Angstrom), charge = 0, multiplicity = 1:

       Center              X                  Y                   Z               Mass       
    ------------   -----------------  -----------------  -----------------  -----------------
         S           -0.760767013080    -1.165260182593     0.037642213427    31.972071174400
         N           -0.095471013080     1.307375817407    -0.249872786573    14.003074004430
         C            1.843600986920    -0.203912182593    -0.569729786573    12.000000000000
         C            0.397659986920     0.085960817407    -0.308727786573    12.000000000000
         C            2.716743986920     0.192111817407     0.623548213427    12.000000000000
         C           -1.970050013080     0.027869817407     0.263219213427    12.000000000000
         C           -1.516607913080     1.313106917407     0.085591413427    12.000000000000
         H            1.973703986920    -1.265798182593    -0.805100786573     1.007825032230
         H            2.143507986920     0.364376817407    -1.456342786573     1.007825032230
         H            2.583357986920     1.253385817407     0.844205213427     1.007825032230
         H            3.773647986920     0.007139817407     0.410208213427     1.007825032230
         H            2.439067986920    -0.381578182593     1.512232213427     1.007825032230
         H           -2.990509013080    -0.233370182593     0.509782213427     1.007825032230
         H           -1.980902013080     2.207427817407     0.144614213427     1.007825032230

  Nuclear repulsion =  349.158728943781853
  Reference energy  = -645.474460233278933

  ==> Basis Set <==

  Basis Set: AUG-CC-PVTZ
    Blend: AUG-CC-PVTZ
    Number of shells: 163
    Number of basis function: 487
    Number of Cartesian functions: 564
    Spherical Harmonics?: true
    Max angular momentum: 3

  ==> CGRSolver (by Rob Parrish) <==

   Number of roots    =         1
   Preconditioning    =    JACOBI
   Convergence cutoff =     1E-06
   Maximum iterations =       100

  ==> CPHFRHamiltonian (by Rob Parrish) <== 

  ==> MemDFJK: Density-Fitted J/K Matrices <==

    J tasked:                   Yes
    K tasked:                   Yes
    wK tasked:                   No
    OpenMP threads:               8
    Memory [MiB]:             22888
    Algorithm:                 Disk
    Schwarz Cutoff:           1E-12
    Mask sparsity (%):       3.0485
    Fitting Condition:        1E-10

   => Auxiliary Basis Set <=

  Basis Set: (AUG-CC-PVTZ AUX)
    Blend: AUG-CC-PVTZ-JKFIT
    Number of shells: 320
    Number of basis function: 1092
    Number of Cartesian functions: 1351
    Spherical Harmonics?: true
    Max angular momentum: 4

  ==> CPHF Iterations <==

  => Iterations <=

             Iter  Converged  Remaining    Residual
  CGR           1          0          1   1.300E-01
  CGR           2          0          1   4.354E-02
  CGR           3          0          1   2.317E-02
  CGR           4          0          1   7.981E-03
  CGR           5          0          1   2.490E-03
  CGR           6          0          1   1.250E-03
  CGR           7          0          1   5.505E-04
  CGR           8          0          1   2.745E-04
  CGR           9          0          1   8.904E-05
  CGR          10          0          1   2.930E-05
  CGR          11          0          1   9.651E-06
  CGR          12          0          1   3.121E-06
  CGR          13          0          1   1.100E-06
  CGR          14          1          0   3.330E-07

    CGRSolver converged.

	-----------------------------------------------------------
	 ==================> DF-MP2 Energies <==================== 
	-----------------------------------------------------------
	 Reference Energy          =    -645.4744602332789327 [Eh]
	 Singles Energy            =      -0.0000000000000000 [Eh]
	 Same-Spin Energy          =      -0.3313547524426097 [Eh]
	 Opposite-Spin Energy      =      -1.0408557147217872 [Eh]
	 Correlation Energy        =      -1.3722104671643969 [Eh]
	 Total Energy              =    -646.8466707004433829 [Eh]
	-----------------------------------------------------------
	 ================> DF-SCS-MP2 Energies <================== 
	-----------------------------------------------------------
	 SCS Same-Spin Scale       =       0.3333333333333333 [-]
	 SCS Opposite-Spin Scale   =       1.2000000000000000 [-]
	 SCS Same-Spin Energy      =      -0.1104515841475366 [Eh]
	 SCS Opposite-Spin Energy  =      -1.2490268576661445 [Eh]
	 SCS Correlation Energy    =      -1.3594784418136812 [Eh]
	 SCS Total Energy          =    -646.8339386750926678 [Eh]
	-----------------------------------------------------------



Properties will be evaluated at  -0.000000,   0.000000,   0.000000 [a0]

Properties computed using the MP2 density matrix

  Nuclear Dipole Moment: [e a0]
     X:     7.4255      Y:     1.7950      Z:     1.0888

  Electronic Dipole Moment: [e a0]
     X:    -7.5603      Y:    -2.2684      Z:    -0.9814

  Dipole Moment: [e a0]
     X:    -0.1348      Y:    -0.4734      Z:     0.1074     Total:     0.5038

  Dipole Moment: [D]
     X:    -0.3426      Y:    -1.2033      Z:     0.2729     Total:     1.2805


*** tstop() called on node58.bme.utexas.edu at Tue Feb  2 21:13:24 2021
Module time:
	user time   =     367.04 seconds =       6.12 minutes
	system time =      18.90 seconds =       0.32 minutes
	total time  =         60 seconds =       1.00 minutes
Total time:
	user time   =     510.40 seconds =       8.51 minutes
	system time =      36.59 seconds =       0.61 minutes
	total time  =         89 seconds =       1.48 minutes

    Psi4 stopped on: Tuesday, 02 February 2021 09:13PM
    Psi4 wall time for execution: 0:01:29.15

*** Psi4 exiting successfully. Buy a developer a beer!
