
    -----------------------------------------------------------------------
          Psi4: An Open-Source Ab Initio Electronic Structure Package
                               Psi4 1.3.2 release

                         Git: Rev {HEAD} ecbda83 


    R. M. Parrish, L. A. Burns, D. G. A. Smith, A. C. Simmonett,
    A. E. DePrince III, E. G. Hohenstein, U. Bozkaya, A. Yu. Sokolov,
    R. Di Remigio, R. M. Richard, J. F. Gonthier, A. M. James,
    H. R. McAlexander, A. Kumar, M. Saitow, X. Wang, B. P. Pritchard,
    P. Verma, H. F. Schaefer III, K. Patkowski, R. A. King, E. F. Valeev,
    F. A. Evangelista, J. M. Turney, T. D. Crawford, and C. D. Sherrill,
    J. Chem. Theory Comput. 13(7) pp 3185--3197 (2017).
    (doi: 10.1021/acs.jctc.7b00174)


                         Additional Contributions by
    P. Kraus, H. Kruse, M. H. Lechner, M. C. Schieber, R. A. Shaw,
    A. Alenaizan, R. Galvelis, Z. L. Glick, S. Lehtola, and J. P. Misiewicz

    -----------------------------------------------------------------------


    Psi4 started on: Tuesday, 02 February 2021 06:52PM

    Process ID: 1958314
    Host:       node58.bme.utexas.edu
    PSIDATADIR: /home/xy3866/psi4conda/share/psi4
    Memory:     500.0 MiB
    Threads:    8
    
  ==> Input File <==

--------------------------------------------------------------------------
#psi4
#
memory 32 gb

molecule  {
0 1
  S       -0.8349460    -1.1774250     0.0297960
  N       -0.1696500     1.2952110    -0.2577190
  C        1.7694220    -0.2160770    -0.5775760
  C        0.3234810     0.0737960    -0.3165740
  C        2.6425650     0.1799470     0.6157020
  C       -2.1853592     0.1549501     0.2816991
  C       -1.5038950     1.2642780     0.0601800
  H        1.8995250    -1.2779630    -0.8129470
  H        2.0693290     0.3522120    -1.4641890
  H        2.5091790     1.2412210     0.8363590
  H        3.6994690    -0.0050250     0.4023620
  H        2.3648890    -0.3937430     1.5043860
  H       -3.0646880    -0.2455350     0.5019360
  H       -2.0550810     2.1952630     0.1367680
units angstrom
no_reorient  #important for SAPT in psi4, default
symmetry c1  #important for SAPT in psi4, default
}

set PROPERTIES_ORIGIN ["COM"]
properties('MP2/aug-cc-pvtz', properties = ['dipole'])
--------------------------------------------------------------------------

  Memory set to  29.802 GiB by Python driver.
    SCF Algorithm Type (re)set to DF.

*** tstart() called on node58.bme.utexas.edu
*** at Tue Feb  2 18:52:25 2021

   => Loading Basis Set <=

    Name: AUG-CC-PVTZ
    Role: ORBITAL
    Keyword: BASIS
    atoms 1    entry S          line   902 file /home/xy3866/psi4conda/share/psi4/basis/aug-cc-pvtz.gbs 
    atoms 2    entry N          line   281 file /home/xy3866/psi4conda/share/psi4/basis/aug-cc-pvtz.gbs 
    atoms 3-7  entry C          line   235 file /home/xy3866/psi4conda/share/psi4/basis/aug-cc-pvtz.gbs 
    atoms 8-14 entry H          line    36 file /home/xy3866/psi4conda/share/psi4/basis/aug-cc-pvtz.gbs 


         ---------------------------------------------------------
                                   SCF
               by Justin Turney, Rob Parrish, Andy Simmonett
                          and Daniel G. A. Smith
                              RHF Reference
                        8 Threads,  30517 MiB Core
         ---------------------------------------------------------

  ==> Geometry <==

    Molecular point group: c1
    Full point group: C1

    Geometry (in Angstrom), charge = 0, multiplicity = 1:

       Center              X                  Y                   Z               Mass       
    ------------   -----------------  -----------------  -----------------  -----------------
         S           -0.755008718306    -1.176150856457     0.036712098643    31.972071174400
         N           -0.089712718306     1.296485143543    -0.250802901357    14.003074004430
         C            1.849359281694    -0.214802856457    -0.570659901357    12.000000000000
         C            0.403418281694     0.075070143543    -0.309657901357    12.000000000000
         C            2.722502281694     0.181221143543     0.622618098643    12.000000000000
         C           -2.105421918306     0.156224243543     0.288615198643    12.000000000000
         C           -1.423957718306     1.265552143543     0.067096098643    12.000000000000
         H            1.979462281694    -1.276688856457    -0.806030901357     1.007825032230
         H            2.149266281694     0.353486143543    -1.457272901357     1.007825032230
         H            2.589116281694     1.242495143543     0.843275098643     1.007825032230
         H            3.779406281694    -0.003750856457     0.409278098643     1.007825032230
         H            2.444826281694    -0.392468856457     1.511302098643     1.007825032230
         H           -2.984750718306    -0.244260856457     0.508852098643     1.007825032230
         H           -1.975143718306     2.196537143543     0.143684098643     1.007825032230

  Running in c1 symmetry.

  Rotational constants: A =      0.14706  B =      0.05725  C =      0.04517 [cm^-1]
  Rotational constants: A =   4408.70666  B =   1716.40754  C =   1354.14866 [MHz]
  Nuclear repulsion =  347.798160762515920

  Charge       = 0
  Multiplicity = 1
  Electrons    = 60
  Nalpha       = 30
  Nbeta        = 30

  ==> Algorithm <==

  SCF Algorithm Type is DF.
  DIIS enabled.
  MOM disabled.
  Fractional occupation disabled.
  Guess Type is SAD.
  Energy threshold   = 1.00e-10
  Density threshold  = 1.00e-10
  Integral threshold = 0.00e+00

  ==> Primary Basis <==

  Basis Set: AUG-CC-PVTZ
    Blend: AUG-CC-PVTZ
    Number of shells: 163
    Number of basis function: 487
    Number of Cartesian functions: 564
    Spherical Harmonics?: true
    Max angular momentum: 3

   => Loading Basis Set <=

    Name: (AUG-CC-PVTZ AUX)
    Role: JKFIT
    Keyword: DF_BASIS_SCF
    atoms 1    entry S          line   730 file /home/xy3866/psi4conda/share/psi4/basis/aug-cc-pvtz-jkfit.gbs 
    atoms 2    entry N          line   224 file /home/xy3866/psi4conda/share/psi4/basis/aug-cc-pvtz-jkfit.gbs 
    atoms 3-7  entry C          line   162 file /home/xy3866/psi4conda/share/psi4/basis/aug-cc-pvtz-jkfit.gbs 
    atoms 8-14 entry H          line    70 file /home/xy3866/psi4conda/share/psi4/basis/aug-cc-pvtz-jkfit.gbs 

  ==> Pre-Iterations <==

   -------------------------------------------------------
    Irrep   Nso     Nmo     Nalpha   Nbeta   Ndocc  Nsocc
   -------------------------------------------------------
     A        487     487       0       0       0       0
   -------------------------------------------------------
    Total     487     487      30      30      30       0
   -------------------------------------------------------

  ==> Integral Setup <==

  DFHelper Memory: AOs need 1.941 GiB; user supplied 22.352 GiB. Using in-core AOs.

  ==> MemDFJK: Density-Fitted J/K Matrices <==

    J tasked:                   Yes
    K tasked:                   Yes
    wK tasked:                   No
    OpenMP threads:               8
    Memory [MiB]:             22888
    Algorithm:                 Disk
    Schwarz Cutoff:           1E-12
    Mask sparsity (%):       3.1007
    Fitting Condition:        1E-10

   => Auxiliary Basis Set <=

  Basis Set: (AUG-CC-PVTZ AUX)
    Blend: AUG-CC-PVTZ-JKFIT
    Number of shells: 320
    Number of basis function: 1092
    Number of Cartesian functions: 1351
    Spherical Harmonics?: true
    Max angular momentum: 4

  Minimum eigenvalue in the overlap matrix is 6.9830631153E-06.
  Using Symmetric Orthogonalization.

  SCF Guess: Superposition of Atomic Densities via on-the-fly atomic UHF.

  ==> Iterations <==

                           Total Energy        Delta E     RMS |[F,P]|

   @DF-RHF iter SAD:  -644.92299986256660   -6.44923e+02   0.00000e+00 
   @DF-RHF iter   1:  -645.21321668577605   -2.90217e-01   1.30293e-03 DIIS
   @DF-RHF iter   2:  -645.37635393379810   -1.63137e-01   8.23368e-04 DIIS
   @DF-RHF iter   3:  -645.45522624360490   -7.88723e-02   1.71676e-04 DIIS
   @DF-RHF iter   4:  -645.46058478648729   -5.35854e-03   7.24054e-05 DIIS
   @DF-RHF iter   5:  -645.46164363465698   -1.05885e-03   1.87052e-05 DIIS
   @DF-RHF iter   6:  -645.46179238083846   -1.48746e-04   8.42143e-06 DIIS
   @DF-RHF iter   7:  -645.46183534675606   -4.29659e-05   3.31040e-06 DIIS
   @DF-RHF iter   8:  -645.46184137705336   -6.03030e-06   1.04810e-06 DIIS
   @DF-RHF iter   9:  -645.46184191243640   -5.35383e-07   2.63261e-07 DIIS
   @DF-RHF iter  10:  -645.46184193496288   -2.25265e-08   9.65855e-08 DIIS
   @DF-RHF iter  11:  -645.46184193819022   -3.22734e-09   4.01829e-08 DIIS
   @DF-RHF iter  12:  -645.46184193874672   -5.56497e-10   2.06765e-08 DIIS
   @DF-RHF iter  13:  -645.46184193890508   -1.58366e-10   7.30585e-09 DIIS
   @DF-RHF iter  14:  -645.46184193893578   -3.06954e-11   2.55987e-09 DIIS
   @DF-RHF iter  15:  -645.46184193893714   -1.36424e-12   1.28461e-09 DIIS
   @DF-RHF iter  16:  -645.46184193894021   -3.06954e-12   5.11480e-10 DIIS
   @DF-RHF iter  17:  -645.46184193893794    2.27374e-12   1.62679e-10 DIIS
   @DF-RHF iter  18:  -645.46184193894010   -2.16005e-12   6.31431e-11 DIIS
  Energy and wave function converged.


  ==> Post-Iterations <==

    Orbital Energies [Eh]
    ---------------------

    Doubly Occupied:                                                      

       1A    -91.983930     2A    -15.564339     3A    -11.322517  
       4A    -11.272775     5A    -11.266628     6A    -11.248400  
       7A    -11.226761     8A     -8.983007     9A     -6.663879  
      10A     -6.663081    11A     -6.662618    12A     -1.272144  
      13A     -1.077932    14A     -1.040379    15A     -0.985331  
      16A     -0.875020    17A     -0.808478    18A     -0.736996  
      19A     -0.688405    20A     -0.636242    21A     -0.602555  
      22A     -0.579626    23A     -0.558431    24A     -0.520680  
      25A     -0.513586    26A     -0.504836    27A     -0.453658  
      28A     -0.421407    29A     -0.374085    30A     -0.350834  

    Virtual:                                                              

      31A      0.029500    32A      0.031742    33A      0.039705  
      34A      0.042819    35A      0.048925    36A      0.055949  
      37A      0.064829    38A      0.080914    39A      0.088437  
      40A      0.095672    41A      0.096953    42A      0.104747  
      43A      0.107253    44A      0.111546    45A      0.117436  
      46A      0.119842    47A      0.127335    48A      0.130921  
      49A      0.133242    50A      0.138528    51A      0.144164  
      52A      0.149741    53A      0.152985    54A      0.158328  
      55A      0.165154    56A      0.176756    57A      0.180119  
      58A      0.187917    59A      0.193012    60A      0.199762  
      61A      0.208575    62A      0.212115    63A      0.218726  
      64A      0.234836    65A      0.239369    66A      0.252423  
      67A      0.254720    68A      0.258718    69A      0.274266  
      70A      0.278975    71A      0.288557    72A      0.295521  
      73A      0.299365    74A      0.305258    75A      0.308212  
      76A      0.317411    77A      0.327742    78A      0.335448  
      79A      0.341892    80A      0.345070    81A      0.352680  
      82A      0.358376    83A      0.367082    84A      0.371346  
      85A      0.374906    86A      0.382230    87A      0.388068  
      88A      0.390057    89A      0.398528    90A      0.400809  
      91A      0.411186    92A      0.417141    93A      0.420982  
      94A      0.425685    95A      0.432667    96A      0.436168  
      97A      0.444647    98A      0.448201    99A      0.455813  
     100A      0.463834   101A      0.466685   102A      0.467247  
     103A      0.469286   104A      0.477718   105A      0.485677  
     106A      0.494987   107A      0.498804   108A      0.501824  
     109A      0.509405   110A      0.514306   111A      0.517598  
     112A      0.530556   113A      0.532489   114A      0.546605  
     115A      0.550843   116A      0.552292   117A      0.562301  
     118A      0.569294   119A      0.573066   120A      0.579486  
     121A      0.587729   122A      0.599867   123A      0.603673  
     124A      0.611491   125A      0.619751   126A      0.631641  
     127A      0.641230   128A      0.648520   129A      0.656300  
     130A      0.668737   131A      0.679389   132A      0.701953  
     133A      0.717558   134A      0.722190   135A      0.735137  
     136A      0.744591   137A      0.752905   138A      0.764288  
     139A      0.767391   140A      0.781773   141A      0.791330  
     142A      0.801257   143A      0.803114   144A      0.818026  
     145A      0.826764   146A      0.840860   147A      0.843105  
     148A      0.855229   149A      0.858572   150A      0.866865  
     151A      0.879663   152A      0.884662   153A      0.890257  
     154A      0.893367   155A      0.900860   156A      0.909482  
     157A      0.912817   158A      0.916852   159A      0.920463  
     160A      0.937026   161A      0.939640   162A      0.943194  
     163A      0.948246   164A      0.956696   165A      0.963481  
     166A      0.974574   167A      0.984451   168A      0.985432  
     169A      0.988505   170A      1.000984   171A      1.012304  
     172A      1.020051   173A      1.029840   174A      1.042399  
     175A      1.046058   176A      1.055858   177A      1.062145  
     178A      1.063517   179A      1.070767   180A      1.084235  
     181A      1.096726   182A      1.105762   183A      1.108126  
     184A      1.109653   185A      1.120750   186A      1.129734  
     187A      1.131365   188A      1.144456   189A      1.154844  
     190A      1.159886   191A      1.168284   192A      1.176162  
     193A      1.192741   194A      1.194227   195A      1.197659  
     196A      1.212627   197A      1.221410   198A      1.224247  
     199A      1.232483   200A      1.247149   201A      1.256774  
     202A      1.261015   203A      1.273427   204A      1.285914  
     205A      1.286917   206A      1.298997   207A      1.317468  
     208A      1.325884   209A      1.333468   210A      1.342071  
     211A      1.355070   212A      1.367212   213A      1.386444  
     214A      1.391943   215A      1.408566   216A      1.410525  
     217A      1.419583   218A      1.441494   219A      1.457912  
     220A      1.471554   221A      1.479737   222A      1.485700  
     223A      1.497925   224A      1.507665   225A      1.525399  
     226A      1.534559   227A      1.552680   228A      1.559255  
     229A      1.565922   230A      1.576219   231A      1.594580  
     232A      1.609468   233A      1.615663   234A      1.630374  
     235A      1.645515   236A      1.650350   237A      1.653443  
     238A      1.665510   239A      1.677414   240A      1.679433  
     241A      1.688992   242A      1.698289   243A      1.713297  
     244A      1.726790   245A      1.732584   246A      1.747639  
     247A      1.760602   248A      1.770054   249A      1.782598  
     250A      1.789842   251A      1.799707   252A      1.814285  
     253A      1.815406   254A      1.831963   255A      1.844023  
     256A      1.860727   257A      1.870000   258A      1.882039  
     259A      1.894795   260A      1.906244   261A      1.913763  
     262A      1.931134   263A      1.945578   264A      1.956885  
     265A      1.971291   266A      1.983821   267A      1.991284  
     268A      2.012952   269A      2.026786   270A      2.033131  
     271A      2.046731   272A      2.057719   273A      2.086750  
     274A      2.088157   275A      2.106047   276A      2.131929  
     277A      2.137053   278A      2.144539   279A      2.169158  
     280A      2.184389   281A      2.207616   282A      2.211230  
     283A      2.226973   284A      2.247354   285A      2.256534  
     286A      2.262769   287A      2.277541   288A      2.278454  
     289A      2.313981   290A      2.323804   291A      2.330485  
     292A      2.338942   293A      2.365260   294A      2.380350  
     295A      2.402415   296A      2.416535   297A      2.420743  
     298A      2.425934   299A      2.436062   300A      2.444444  
     301A      2.480290   302A      2.497444   303A      2.518576  
     304A      2.528417   305A      2.534695   306A      2.562269  
     307A      2.582859   308A      2.627181   309A      2.646789  
     310A      2.649204   311A      2.682875   312A      2.720852  
     313A      2.739502   314A      2.745428   315A      2.760104  
     316A      2.799407   317A      2.833943   318A      2.881803  
     319A      2.924857   320A      2.943576   321A      2.994359  
     322A      3.014746   323A      3.073125   324A      3.079028  
     325A      3.148470   326A      3.184087   327A      3.217179  
     328A      3.233370   329A      3.261934   330A      3.275544  
     331A      3.318998   332A      3.346392   333A      3.364763  
     334A      3.405527   335A      3.419854   336A      3.425991  
     337A      3.441468   338A      3.467953   339A      3.478876  
     340A      3.505997   341A      3.524424   342A      3.537711  
     343A      3.545159   344A      3.567063   345A      3.596456  
     346A      3.609268   347A      3.633058   348A      3.649280  
     349A      3.672337   350A      3.683172   351A      3.687026  
     352A      3.700686   353A      3.710639   354A      3.732897  
     355A      3.743478   356A      3.750494   357A      3.762546  
     358A      3.780755   359A      3.799769   360A      3.810966  
     361A      3.817974   362A      3.831505   363A      3.848078  
     364A      3.866599   365A      3.886174   366A      3.895764  
     367A      3.907066   368A      3.916797   369A      3.933156  
     370A      3.950149   371A      3.962431   372A      3.980878  
     373A      3.994659   374A      4.001364   375A      4.013735  
     376A      4.021961   377A      4.041779   378A      4.058829  
     379A      4.080674   380A      4.097198   381A      4.128729  
     382A      4.130073   383A      4.145085   384A      4.158838  
     385A      4.179526   386A      4.198285   387A      4.206995  
     388A      4.236973   389A      4.238926   390A      4.249948  
     391A      4.258093   392A      4.291815   393A      4.325899  
     394A      4.340073   395A      4.354122   396A      4.362566  
     397A      4.389009   398A      4.405505   399A      4.437016  
     400A      4.445795   401A      4.456859   402A      4.492234  
     403A      4.495967   404A      4.507763   405A      4.550369  
     406A      4.578759   407A      4.612551   408A      4.638283  
     409A      4.650627   410A      4.664061   411A      4.709590  
     412A      4.724187   413A      4.760937   414A      4.795801  
     415A      4.797278   416A      4.836275   417A      4.850401  
     418A      4.866756   419A      4.883146   420A      4.888707  
     421A      4.910434   422A      4.925586   423A      4.962799  
     424A      4.996419   425A      5.048147   426A      5.072403  
     427A      5.081191   428A      5.101430   429A      5.127886  
     430A      5.146682   431A      5.156223   432A      5.175671  
     433A      5.203315   434A      5.216155   435A      5.230834  
     436A      5.264651   437A      5.285739   438A      5.355865  
     439A      5.372244   440A      5.390653   441A      5.410105  
     442A      5.438217   443A      5.457379   444A      5.473427  
     445A      5.501309   446A      5.570372   447A      5.606765  
     448A      5.609601   449A      5.654475   450A      5.677437  
     451A      5.683859   452A      5.712665   453A      5.746612  
     454A      5.799370   455A      5.806255   456A      5.863460  
     457A      5.883201   458A      5.919505   459A      5.961348  
     460A      6.005718   461A      6.062067   462A      6.078567  
     463A      6.086888   464A      6.111108   465A      6.174278  
     466A      6.181405   467A      6.193536   468A      6.217677  
     469A      6.272006   470A      6.358193   471A      6.452886  
     472A      6.546948   473A      6.565949   474A      6.730645  
     475A      6.754356   476A      6.775463   477A      6.819702  
     478A      6.898765   479A      7.140423   480A      7.309579  
     481A      8.012469   482A     15.709030   483A     15.896840  
     484A     17.829980   485A     18.015282   486A     18.461518  
     487A     19.494239  

    Final Occupation by Irrep:
              A 
    DOCC [    30 ]

  @DF-RHF Final Energy:  -645.46184193894010

   => Energetics <=

    Nuclear Repulsion Energy =            347.7981607625159199
    One-Electron Energy =               -1574.8028849015788637
    Two-Electron Energy =                 581.5428822001229037
    Total Energy =                       -645.4618419389400970

Computation Completed

*** tstop() called on node58.bme.utexas.edu at Tue Feb  2 18:52:54 2021
Module time:
	user time   =     143.08 seconds =       2.38 minutes
	system time =      17.95 seconds =       0.30 minutes
	total time  =         29 seconds =       0.48 minutes
Total time:
	user time   =     143.08 seconds =       2.38 minutes
	system time =      17.95 seconds =       0.30 minutes
	total time  =         29 seconds =       0.48 minutes
   => Loading Basis Set <=

    Name: (AUG-CC-PVTZ AUX)
    Role: RIFIT
    Keyword: DF_BASIS_MP2
    atoms 1    entry S          line   666 file /home/xy3866/psi4conda/share/psi4/basis/aug-cc-pvtz-ri.gbs 
    atoms 2    entry N          line   206 file /home/xy3866/psi4conda/share/psi4/basis/aug-cc-pvtz-ri.gbs 
    atoms 3-7  entry C          line   148 file /home/xy3866/psi4conda/share/psi4/basis/aug-cc-pvtz-ri.gbs 
    atoms 8-14 entry H          line    30 file /home/xy3866/psi4conda/share/psi4/basis/aug-cc-pvtz-ri.gbs 


*** tstart() called on node58.bme.utexas.edu
*** at Tue Feb  2 18:52:54 2021


  //>>>>>>>>>>>>>>>>>>>>>>>>>>>>>>>>>>>//
  //               DFMP2               //
  //<<<<<<<<<<<<<<<<<<<<<<<<<<<<<<<<<<<//

	 --------------------------------------------------------
	                          DF-MP2                         
	      2nd-Order Density-Fitted Moller-Plesset Theory     
	              RMP2 Wavefunction,   8 Threads             
	                                                         
	        Rob Parrish, Justin Turney, Andy Simmonett,      
	           Ed Hohenstein, and C. David Sherrill          
	 --------------------------------------------------------

   => Auxiliary Basis Set <=

  Basis Set: (AUG-CC-PVTZ AUX)
    Blend: AUG-CC-PVTZ-RI
    Number of shells: 303
    Number of basis function: 1105
    Number of Cartesian functions: 1392
    Spherical Harmonics?: true
    Max angular momentum: 4

	 --------------------------------------------------------
	                 NBF =   487, NAUX =  1105
	 --------------------------------------------------------
	   CLASS    FOCC     OCC    AOCC    AVIR     VIR    FVIR
	   PAIRS       0      30      30     457     457       0
	 --------------------------------------------------------

  DFHelper Memory: AOs need 1.941 GiB; user supplied 22.352 GiB. Using in-core AOs.


         ------------------------------------------------------------
                                     CPHF                           
                                  Rob Parrish                       
         ------------------------------------------------------------

  ==> Geometry <==

    Molecular point group: c1
    Full point group: C1

    Geometry (in Angstrom), charge = 0, multiplicity = 1:

       Center              X                  Y                   Z               Mass       
    ------------   -----------------  -----------------  -----------------  -----------------
         S           -0.755008718306    -1.176150856457     0.036712098643    31.972071174400
         N           -0.089712718306     1.296485143543    -0.250802901357    14.003074004430
         C            1.849359281694    -0.214802856457    -0.570659901357    12.000000000000
         C            0.403418281694     0.075070143543    -0.309657901357    12.000000000000
         C            2.722502281694     0.181221143543     0.622618098643    12.000000000000
         C           -2.105421918306     0.156224243543     0.288615198643    12.000000000000
         C           -1.423957718306     1.265552143543     0.067096098643    12.000000000000
         H            1.979462281694    -1.276688856457    -0.806030901357     1.007825032230
         H            2.149266281694     0.353486143543    -1.457272901357     1.007825032230
         H            2.589116281694     1.242495143543     0.843275098643     1.007825032230
         H            3.779406281694    -0.003750856457     0.409278098643     1.007825032230
         H            2.444826281694    -0.392468856457     1.511302098643     1.007825032230
         H           -2.984750718306    -0.244260856457     0.508852098643     1.007825032230
         H           -1.975143718306     2.196537143543     0.143684098643     1.007825032230

  Nuclear repulsion =  347.798160762515920
  Reference energy  = -645.461841938940097

  ==> Basis Set <==

  Basis Set: AUG-CC-PVTZ
    Blend: AUG-CC-PVTZ
    Number of shells: 163
    Number of basis function: 487
    Number of Cartesian functions: 564
    Spherical Harmonics?: true
    Max angular momentum: 3

  ==> CGRSolver (by Rob Parrish) <==

   Number of roots    =         1
   Preconditioning    =    JACOBI
   Convergence cutoff =     1E-06
   Maximum iterations =       100

  ==> CPHFRHamiltonian (by Rob Parrish) <== 

  ==> MemDFJK: Density-Fitted J/K Matrices <==

    J tasked:                   Yes
    K tasked:                   Yes
    wK tasked:                   No
    OpenMP threads:               8
    Memory [MiB]:             22888
    Algorithm:                 Disk
    Schwarz Cutoff:           1E-12
    Mask sparsity (%):       3.1007
    Fitting Condition:        1E-10

   => Auxiliary Basis Set <=

  Basis Set: (AUG-CC-PVTZ AUX)
    Blend: AUG-CC-PVTZ-JKFIT
    Number of shells: 320
    Number of basis function: 1092
    Number of Cartesian functions: 1351
    Spherical Harmonics?: true
    Max angular momentum: 4

  ==> CPHF Iterations <==

  => Iterations <=

             Iter  Converged  Remaining    Residual
  CGR           1          0          1   1.445E-01
  CGR           2          0          1   5.084E-02
  CGR           3          0          1   2.612E-02
  CGR           4          0          1   8.598E-03
  CGR           5          0          1   2.881E-03
  CGR           6          0          1   1.445E-03
  CGR           7          0          1   6.295E-04
  CGR           8          0          1   2.575E-04
  CGR           9          0          1   8.463E-05
  CGR          10          0          1   2.738E-05
  CGR          11          0          1   8.465E-06
  CGR          12          0          1   2.479E-06
  CGR          13          1          0   7.760E-07

    CGRSolver converged.

	-----------------------------------------------------------
	 ==================> DF-MP2 Energies <==================== 
	-----------------------------------------------------------
	 Reference Energy          =    -645.4618419389400970 [Eh]
	 Singles Energy            =      -0.0000000000000000 [Eh]
	 Same-Spin Energy          =      -0.3296131193387287 [Eh]
	 Opposite-Spin Energy      =      -1.0383867550383932 [Eh]
	 Correlation Energy        =      -1.3679998743771220 [Eh]
	 Total Energy              =    -646.8298418133172163 [Eh]
	-----------------------------------------------------------
	 ================> DF-SCS-MP2 Energies <================== 
	-----------------------------------------------------------
	 SCS Same-Spin Scale       =       0.3333333333333333 [-]
	 SCS Opposite-Spin Scale   =       1.2000000000000000 [-]
	 SCS Same-Spin Energy      =      -0.1098710397795762 [Eh]
	 SCS Opposite-Spin Energy  =      -1.2460641060460718 [Eh]
	 SCS Correlation Energy    =      -1.3559351458256481 [Eh]
	 SCS Total Energy          =    -646.8177770847657939 [Eh]
	-----------------------------------------------------------



Properties will be evaluated at   0.000000,  -0.000000,  -0.000000 [a0]

Properties computed using the MP2 density matrix

  Nuclear Dipole Moment: [e a0]
     X:     7.4634      Y:     1.7233      Z:     1.0827

  Electronic Dipole Moment: [e a0]
     X:    -7.5966      Y:    -2.1279      Z:    -0.9730

  Dipole Moment: [e a0]
     X:    -0.1332      Y:    -0.4046      Z:     0.1097     Total:     0.4399

  Dipole Moment: [D]
     X:    -0.3385      Y:    -1.0284      Z:     0.2788     Total:     1.1180


*** tstop() called on node58.bme.utexas.edu at Tue Feb  2 18:53:54 2021
Module time:
	user time   =     361.37 seconds =       6.02 minutes
	system time =      18.51 seconds =       0.31 minutes
	total time  =         60 seconds =       1.00 minutes
Total time:
	user time   =     504.68 seconds =       8.41 minutes
	system time =      36.47 seconds =       0.61 minutes
	total time  =         89 seconds =       1.48 minutes

    Psi4 stopped on: Tuesday, 02 February 2021 06:53PM
    Psi4 wall time for execution: 0:01:28.70

*** Psi4 exiting successfully. Buy a developer a beer!
