
    -----------------------------------------------------------------------
          Psi4: An Open-Source Ab Initio Electronic Structure Package
                               Psi4 1.3.2 release

                         Git: Rev {HEAD} ecbda83 


    R. M. Parrish, L. A. Burns, D. G. A. Smith, A. C. Simmonett,
    A. E. DePrince III, E. G. Hohenstein, U. Bozkaya, A. Yu. Sokolov,
    R. Di Remigio, R. M. Richard, J. F. Gonthier, A. M. James,
    H. R. McAlexander, A. Kumar, M. Saitow, X. Wang, B. P. Pritchard,
    P. Verma, H. F. Schaefer III, K. Patkowski, R. A. King, E. F. Valeev,
    F. A. Evangelista, J. M. Turney, T. D. Crawford, and C. D. Sherrill,
    J. Chem. Theory Comput. 13(7) pp 3185--3197 (2017).
    (doi: 10.1021/acs.jctc.7b00174)


                         Additional Contributions by
    P. Kraus, H. Kruse, M. H. Lechner, M. C. Schieber, R. A. Shaw,
    A. Alenaizan, R. Galvelis, Z. L. Glick, S. Lehtola, and J. P. Misiewicz

    -----------------------------------------------------------------------


    Psi4 started on: Tuesday, 02 February 2021 09:02PM

    Process ID: 1991210
    Host:       node58.bme.utexas.edu
    PSIDATADIR: /home/xy3866/psi4conda/share/psi4
    Memory:     500.0 MiB
    Threads:    8
    
  ==> Input File <==

--------------------------------------------------------------------------
#psi4
#
memory 32 gb

molecule  {
0 1
  S       -0.8349460    -1.1774250     0.0297960
  N       -0.1696500     1.2952110    -0.2577190
  C        1.7694220    -0.2160770    -0.5775760
  C        0.3234810     0.0737960    -0.3165740
  C        2.6425650     0.1799470     0.6157020
  C       -2.0442290     0.0157050     0.2553730
  C       -1.5038950     1.2642780     0.0601800
  H        1.8995250    -1.2779630    -0.8129470
  H        2.0693290     0.3522120    -1.4641890
  H        2.5091790     1.2412210     0.8363590
  H        3.6994690    -0.0050250     0.4023620
  H        2.3648890    -0.3937430     1.5043860
  H       -3.0646880    -0.2455350     0.5019360
  H       -2.0042627     2.1094280     0.1297067
units angstrom
no_reorient  #important for SAPT in psi4, default
symmetry c1  #important for SAPT in psi4, default
}

set PROPERTIES_ORIGIN ["COM"]
properties('MP2/aug-cc-pvtz', properties = ['dipole'])
--------------------------------------------------------------------------

  Memory set to  29.802 GiB by Python driver.
    SCF Algorithm Type (re)set to DF.

*** tstart() called on node58.bme.utexas.edu
*** at Tue Feb  2 21:02:53 2021

   => Loading Basis Set <=

    Name: AUG-CC-PVTZ
    Role: ORBITAL
    Keyword: BASIS
    atoms 1    entry S          line   902 file /home/xy3866/psi4conda/share/psi4/basis/aug-cc-pvtz.gbs 
    atoms 2    entry N          line   281 file /home/xy3866/psi4conda/share/psi4/basis/aug-cc-pvtz.gbs 
    atoms 3-7  entry C          line   235 file /home/xy3866/psi4conda/share/psi4/basis/aug-cc-pvtz.gbs 
    atoms 8-14 entry H          line    36 file /home/xy3866/psi4conda/share/psi4/basis/aug-cc-pvtz.gbs 


         ---------------------------------------------------------
                                   SCF
               by Justin Turney, Rob Parrish, Andy Simmonett
                          and Daniel G. A. Smith
                              RHF Reference
                        8 Threads,  30517 MiB Core
         ---------------------------------------------------------

  ==> Geometry <==

    Molecular point group: c1
    Full point group: C1

    Geometry (in Angstrom), charge = 0, multiplicity = 1:

       Center              X                  Y                   Z               Mass       
    ------------   -----------------  -----------------  -----------------  -----------------
         S           -0.770445147426    -1.160602337486     0.039570012316    31.972071174400
         N           -0.105149147426     1.312033662514    -0.247944987684    14.003074004430
         C            1.833922852574    -0.199254337486    -0.567801987684    12.000000000000
         C            0.387981852574     0.090618662514    -0.306799987684    12.000000000000
         C            2.707065852574     0.196769662514     0.625476012316    12.000000000000
         C           -1.979728147426     0.032527662514     0.265147012316    12.000000000000
         C           -1.439394147426     1.281100662514     0.069954012316    12.000000000000
         H            1.964025852574    -1.261140337486    -0.803172987684     1.007825032230
         H            2.133829852574     0.369034662514    -1.454414987684     1.007825032230
         H            2.573679852574     1.258043662514     0.846133012316     1.007825032230
         H            3.763969852574     0.011797662514     0.412136012316     1.007825032230
         H            2.429389852574    -0.376920337486     1.514160012316     1.007825032230
         H           -3.000187147426    -0.228712337486     0.511710012316     1.007825032230
         H           -1.939761847426     2.126250662514     0.139480712316     1.007825032230

  Running in c1 symmetry.

  Rotational constants: A =      0.14825  B =      0.05870  C =      0.04613 [cm^-1]
  Rotational constants: A =   4444.38302  B =   1759.68880  C =   1383.08575 [MHz]
  Nuclear repulsion =  351.563063110936923

  Charge       = 0
  Multiplicity = 1
  Electrons    = 60
  Nalpha       = 30
  Nbeta        = 30

  ==> Algorithm <==

  SCF Algorithm Type is DF.
  DIIS enabled.
  MOM disabled.
  Fractional occupation disabled.
  Guess Type is SAD.
  Energy threshold   = 1.00e-10
  Density threshold  = 1.00e-10
  Integral threshold = 0.00e+00

  ==> Primary Basis <==

  Basis Set: AUG-CC-PVTZ
    Blend: AUG-CC-PVTZ
    Number of shells: 163
    Number of basis function: 487
    Number of Cartesian functions: 564
    Spherical Harmonics?: true
    Max angular momentum: 3

   => Loading Basis Set <=

    Name: (AUG-CC-PVTZ AUX)
    Role: JKFIT
    Keyword: DF_BASIS_SCF
    atoms 1    entry S          line   730 file /home/xy3866/psi4conda/share/psi4/basis/aug-cc-pvtz-jkfit.gbs 
    atoms 2    entry N          line   224 file /home/xy3866/psi4conda/share/psi4/basis/aug-cc-pvtz-jkfit.gbs 
    atoms 3-7  entry C          line   162 file /home/xy3866/psi4conda/share/psi4/basis/aug-cc-pvtz-jkfit.gbs 
    atoms 8-14 entry H          line    70 file /home/xy3866/psi4conda/share/psi4/basis/aug-cc-pvtz-jkfit.gbs 

  ==> Pre-Iterations <==

   -------------------------------------------------------
    Irrep   Nso     Nmo     Nalpha   Nbeta   Ndocc  Nsocc
   -------------------------------------------------------
     A        487     487       0       0       0       0
   -------------------------------------------------------
    Total     487     487      30      30      30       0
   -------------------------------------------------------

  ==> Integral Setup <==

  DFHelper Memory: AOs need 1.943 GiB; user supplied 22.352 GiB. Using in-core AOs.

  ==> MemDFJK: Density-Fitted J/K Matrices <==

    J tasked:                   Yes
    K tasked:                   Yes
    wK tasked:                   No
    OpenMP threads:               8
    Memory [MiB]:             22888
    Algorithm:                 Disk
    Schwarz Cutoff:           1E-12
    Mask sparsity (%):       2.9726
    Fitting Condition:        1E-10

   => Auxiliary Basis Set <=

  Basis Set: (AUG-CC-PVTZ AUX)
    Blend: AUG-CC-PVTZ-JKFIT
    Number of shells: 320
    Number of basis function: 1092
    Number of Cartesian functions: 1351
    Spherical Harmonics?: true
    Max angular momentum: 4

  Minimum eigenvalue in the overlap matrix is 7.7041723341E-06.
  Using Symmetric Orthogonalization.

  SCF Guess: Superposition of Atomic Densities via on-the-fly atomic UHF.

  ==> Iterations <==

                           Total Energy        Delta E     RMS |[F,P]|

   @DF-RHF iter SAD:  -645.13115290518465   -6.45131e+02   0.00000e+00 
   @DF-RHF iter   1:  -645.22566326878405   -9.45104e-02   1.31747e-03 DIIS
   @DF-RHF iter   2:  -645.38961414393953   -1.63951e-01   8.47782e-04 DIIS
   @DF-RHF iter   3:  -645.47331660695681   -8.37025e-02   1.75498e-04 DIIS
   @DF-RHF iter   4:  -645.47870646236902   -5.38986e-03   7.53759e-05 DIIS
   @DF-RHF iter   5:  -645.47979060059345   -1.08414e-03   1.83026e-05 DIIS
   @DF-RHF iter   6:  -645.47993288297198   -1.42282e-04   8.33592e-06 DIIS
   @DF-RHF iter   7:  -645.47997385468534   -4.09717e-05   3.41468e-06 DIIS
   @DF-RHF iter   8:  -645.47998042982522   -6.57514e-06   1.19131e-06 DIIS
   @DF-RHF iter   9:  -645.47998118045973   -7.50635e-07   3.72348e-07 DIIS
   @DF-RHF iter  10:  -645.47998123093896   -5.04792e-08   1.90685e-07 DIIS
   @DF-RHF iter  11:  -645.47998124103253   -1.00936e-08   6.67788e-08 DIIS
   @DF-RHF iter  12:  -645.47998124287415   -1.84161e-09   3.43379e-08 DIIS
   @DF-RHF iter  13:  -645.47998124328399   -4.09841e-10   9.79396e-09 DIIS
   @DF-RHF iter  14:  -645.47998124333640   -5.24096e-11   3.69330e-09 DIIS
   @DF-RHF iter  15:  -645.47998124334708   -1.06866e-11   1.53318e-09 DIIS
   @DF-RHF iter  16:  -645.47998124335140   -4.32010e-12   5.08138e-10 DIIS
   @DF-RHF iter  17:  -645.47998124334720    4.20641e-12   1.60346e-10 DIIS
   @DF-RHF iter  18:  -645.47998124334720    0.00000e+00   5.54536e-11 DIIS
  Energy and wave function converged.


  ==> Post-Iterations <==

    Orbital Energies [Eh]
    ---------------------

    Doubly Occupied:                                                      

       1A    -91.993873     2A    -15.564357     3A    -11.312062  
       4A    -11.261091     5A    -11.257451     6A    -11.245404  
       7A    -11.223994     8A     -8.994639     9A     -6.675543  
      10A     -6.675032    11A     -6.674323    12A     -1.274495  
      13A     -1.072931    14A     -1.061159    15A     -0.979726  
      16A     -0.871839    17A     -0.798490    18A     -0.732281  
      19A     -0.690960    20A     -0.630815    21A     -0.603776  
      22A     -0.575238    23A     -0.555810    24A     -0.518422  
      25A     -0.511943    26A     -0.506101    27A     -0.497269  
      28A     -0.424512    29A     -0.387056    30A     -0.328384  

    Virtual:                                                              

      31A      0.029720    32A      0.031710    33A      0.040326  
      34A      0.042783    35A      0.049116    36A      0.056015  
      37A      0.064709    38A      0.080440    39A      0.087522  
      40A      0.095656    41A      0.098417    42A      0.104128  
      43A      0.108835    44A      0.113642    45A      0.116912  
      46A      0.120166    47A      0.127365    48A      0.132622  
      49A      0.133173    50A      0.138975    51A      0.144379  
      52A      0.151551    53A      0.154300    54A      0.161646  
      55A      0.165021    56A      0.176388    57A      0.181495  
      58A      0.190069    59A      0.192872    60A      0.200093  
      61A      0.206560    62A      0.214637    63A      0.223404  
      64A      0.236313    65A      0.238817    66A      0.253369  
      67A      0.258924    68A      0.263883    69A      0.274254  
      70A      0.277093    71A      0.289630    72A      0.294211  
      73A      0.297423    74A      0.308137    75A      0.309698  
      76A      0.323798    77A      0.331840    78A      0.338745  
      79A      0.342805    80A      0.345609    81A      0.351116  
      82A      0.357185    83A      0.368686    84A      0.371525  
      85A      0.374372    86A      0.385707    87A      0.386580  
      88A      0.391772    89A      0.399502    90A      0.401422  
      91A      0.412898    92A      0.419208    93A      0.421906  
      94A      0.427186    95A      0.433817    96A      0.438133  
      97A      0.444086    98A      0.451904    99A      0.455854  
     100A      0.462592   101A      0.468617   102A      0.470431  
     103A      0.476420   104A      0.477897   105A      0.490397  
     106A      0.496368   107A      0.498778   108A      0.508702  
     109A      0.511188   110A      0.514710   111A      0.520365  
     112A      0.528217   113A      0.534319   114A      0.544590  
     115A      0.550423   116A      0.558072   117A      0.568660  
     118A      0.572495   119A      0.576274   120A      0.585007  
     121A      0.592424   122A      0.602183   123A      0.605811  
     124A      0.612711   125A      0.624812   126A      0.633983  
     127A      0.648976   128A      0.654863   129A      0.666289  
     130A      0.674554   131A      0.683747   132A      0.703623  
     133A      0.718337   134A      0.725842   135A      0.739739  
     136A      0.745377   137A      0.759432   138A      0.772184  
     139A      0.776237   140A      0.786637   141A      0.795084  
     142A      0.802001   143A      0.806175   144A      0.820839  
     145A      0.827908   146A      0.840321   147A      0.846861  
     148A      0.854369   149A      0.858367   150A      0.865872  
     151A      0.882790   152A      0.888328   153A      0.890067  
     154A      0.893754   155A      0.899285   156A      0.904143  
     157A      0.912892   158A      0.914585   159A      0.922827  
     160A      0.939055   161A      0.939191   162A      0.944789  
     163A      0.953933   164A      0.958030   165A      0.967846  
     166A      0.978644   167A      0.984614   168A      0.990503  
     169A      0.993218   170A      1.006283   171A      1.014815  
     172A      1.022500   173A      1.030574   174A      1.046426  
     175A      1.051446   176A      1.056395   177A      1.061867  
     178A      1.071644   179A      1.076071   180A      1.085478  
     181A      1.097545   182A      1.106305   183A      1.109254  
     184A      1.117859   185A      1.126484   186A      1.129791  
     187A      1.135532   188A      1.151760   189A      1.161250  
     190A      1.164489   191A      1.170268   192A      1.186143  
     193A      1.191411   194A      1.202627   195A      1.202810  
     196A      1.209215   197A      1.221985   198A      1.229614  
     199A      1.232888   200A      1.254566   201A      1.257843  
     202A      1.268480   203A      1.272402   204A      1.287824  
     205A      1.293237   206A      1.309022   207A      1.320898  
     208A      1.327972   209A      1.349367   210A      1.353784  
     211A      1.360577   212A      1.375981   213A      1.389747  
     214A      1.392442   215A      1.414454   216A      1.418527  
     217A      1.424021   218A      1.430276   219A      1.469435  
     220A      1.477415   221A      1.487583   222A      1.502253  
     223A      1.510062   224A      1.517522   225A      1.522512  
     226A      1.531633   227A      1.547982   228A      1.563152  
     229A      1.570388   230A      1.578691   231A      1.588255  
     232A      1.621855   233A      1.624716   234A      1.631462  
     235A      1.647258   236A      1.655088   237A      1.657516  
     238A      1.668554   239A      1.682933   240A      1.687221  
     241A      1.693312   242A      1.704220   243A      1.720551  
     244A      1.730996   245A      1.744745   246A      1.756380  
     247A      1.763802   248A      1.786803   249A      1.788254  
     250A      1.799008   251A      1.805760   252A      1.822522  
     253A      1.826754   254A      1.840572   255A      1.847391  
     256A      1.859344   257A      1.884449   258A      1.901512  
     259A      1.906851   260A      1.928926   261A      1.937238  
     262A      1.948070   263A      1.958366   264A      1.975281  
     265A      1.981486   266A      1.999289   267A      2.004310  
     268A      2.027162   269A      2.029258   270A      2.030435  
     271A      2.055475   272A      2.072668   273A      2.091620  
     274A      2.099882   275A      2.108220   276A      2.133859  
     277A      2.138966   278A      2.146205   279A      2.164878  
     280A      2.187423   281A      2.200158   282A      2.222314  
     283A      2.232607   284A      2.246595   285A      2.252750  
     286A      2.259034   287A      2.264235   288A      2.268610  
     289A      2.306543   290A      2.318730   291A      2.328079  
     292A      2.351026   293A      2.370680   294A      2.385048  
     295A      2.400719   296A      2.408479   297A      2.431408  
     298A      2.432100   299A      2.444414   300A      2.454720  
     301A      2.484350   302A      2.498649   303A      2.531680  
     304A      2.547593   305A      2.571656   306A      2.585474  
     307A      2.610108   308A      2.633039   309A      2.653698  
     310A      2.674281   311A      2.694359   312A      2.732775  
     313A      2.739166   314A      2.762200   315A      2.806044  
     316A      2.844252   317A      2.864254   318A      2.885427  
     319A      2.948409   320A      2.973149   321A      2.990485  
     322A      3.051494   323A      3.089070   324A      3.110656  
     325A      3.180204   326A      3.198504   327A      3.233798  
     328A      3.255331   329A      3.259819   330A      3.294180  
     331A      3.308241   332A      3.325961   333A      3.375760  
     334A      3.396581   335A      3.417340   336A      3.423867  
     337A      3.454845   338A      3.484435   339A      3.516979  
     340A      3.518784   341A      3.543026   342A      3.553180  
     343A      3.554700   344A      3.560303   345A      3.605902  
     346A      3.617238   347A      3.650090   348A      3.659187  
     349A      3.675392   350A      3.688587   351A      3.694001  
     352A      3.711785   353A      3.719555   354A      3.741424  
     355A      3.756982   356A      3.759912   357A      3.772520  
     358A      3.784192   359A      3.809290   360A      3.831969  
     361A      3.835823   362A      3.862106   363A      3.865822  
     364A      3.881376   365A      3.888787   366A      3.894104  
     367A      3.899149   368A      3.926097   369A      3.951422  
     370A      3.957456   371A      3.984521   372A      3.993796  
     373A      4.002143   374A      4.013174   375A      4.023598  
     376A      4.038749   377A      4.044519   378A      4.080228  
     379A      4.088691   380A      4.106543   381A      4.115574  
     382A      4.148421   383A      4.153846   384A      4.174856  
     385A      4.196146   386A      4.204941   387A      4.209153  
     388A      4.220245   389A      4.237035   390A      4.259977  
     391A      4.273712   392A      4.299298   393A      4.322343  
     394A      4.334001   395A      4.355389   396A      4.389683  
     397A      4.407646   398A      4.422028   399A      4.431927  
     400A      4.440104   401A      4.473938   402A      4.499215  
     403A      4.504888   404A      4.533893   405A      4.560935  
     406A      4.590184   407A      4.595016   408A      4.637575  
     409A      4.654067   410A      4.695895   411A      4.732136  
     412A      4.749391   413A      4.756045   414A      4.805656  
     415A      4.826860   416A      4.855876   417A      4.864367  
     418A      4.885915   419A      4.901653   420A      4.908159  
     421A      4.923253   422A      4.945047   423A      4.952912  
     424A      4.987628   425A      5.006681   426A      5.025699  
     427A      5.091430   428A      5.100571   429A      5.125291  
     430A      5.137421   431A      5.171353   432A      5.174639  
     433A      5.188975   434A      5.216363   435A      5.251527  
     436A      5.275005   437A      5.298150   438A      5.334288  
     439A      5.372035   440A      5.384854   441A      5.395831  
     442A      5.427830   443A      5.453657   444A      5.463243  
     445A      5.517192   446A      5.582100   447A      5.587137  
     448A      5.620527   449A      5.630941   450A      5.666005  
     451A      5.694752   452A      5.712383   453A      5.765398  
     454A      5.790859   455A      5.804838   456A      5.840501  
     457A      5.873810   458A      5.890981   459A      5.917059  
     460A      5.929401   461A      6.006195   462A      6.039659  
     463A      6.071984   464A      6.111828   465A      6.178662  
     466A      6.196678   467A      6.221623   468A      6.266544  
     469A      6.290914   470A      6.387338   471A      6.468131  
     472A      6.569086   473A      6.593959   474A      6.738642  
     475A      6.756375   476A      6.815243   477A      6.825188  
     478A      6.901633   479A      7.043608   480A      7.123643  
     481A      8.698979   482A     15.761443   483A     15.921446  
     484A     16.470481   485A     17.897342   486A     18.999163  
     487A     19.489405  

    Final Occupation by Irrep:
              A 
    DOCC [    30 ]

  @DF-RHF Final Energy:  -645.47998124334720

   => Energetics <=

    Nuclear Repulsion Energy =            351.5630631109369233
    One-Electron Energy =               -1582.2881440159369504
    Two-Electron Energy =                 585.2450996616529437
    Total Energy =                       -645.4799812433471971

Computation Completed

*** tstop() called on node58.bme.utexas.edu at Tue Feb  2 21:03:22 2021
Module time:
	user time   =     142.37 seconds =       2.37 minutes
	system time =      16.85 seconds =       0.28 minutes
	total time  =         29 seconds =       0.48 minutes
Total time:
	user time   =     142.37 seconds =       2.37 minutes
	system time =      16.85 seconds =       0.28 minutes
	total time  =         29 seconds =       0.48 minutes
   => Loading Basis Set <=

    Name: (AUG-CC-PVTZ AUX)
    Role: RIFIT
    Keyword: DF_BASIS_MP2
    atoms 1    entry S          line   666 file /home/xy3866/psi4conda/share/psi4/basis/aug-cc-pvtz-ri.gbs 
    atoms 2    entry N          line   206 file /home/xy3866/psi4conda/share/psi4/basis/aug-cc-pvtz-ri.gbs 
    atoms 3-7  entry C          line   148 file /home/xy3866/psi4conda/share/psi4/basis/aug-cc-pvtz-ri.gbs 
    atoms 8-14 entry H          line    30 file /home/xy3866/psi4conda/share/psi4/basis/aug-cc-pvtz-ri.gbs 


*** tstart() called on node58.bme.utexas.edu
*** at Tue Feb  2 21:03:22 2021


  //>>>>>>>>>>>>>>>>>>>>>>>>>>>>>>>>>>>//
  //               DFMP2               //
  //<<<<<<<<<<<<<<<<<<<<<<<<<<<<<<<<<<<//

	 --------------------------------------------------------
	                          DF-MP2                         
	      2nd-Order Density-Fitted Moller-Plesset Theory     
	              RMP2 Wavefunction,   8 Threads             
	                                                         
	        Rob Parrish, Justin Turney, Andy Simmonett,      
	           Ed Hohenstein, and C. David Sherrill          
	 --------------------------------------------------------

   => Auxiliary Basis Set <=

  Basis Set: (AUG-CC-PVTZ AUX)
    Blend: AUG-CC-PVTZ-RI
    Number of shells: 303
    Number of basis function: 1105
    Number of Cartesian functions: 1392
    Spherical Harmonics?: true
    Max angular momentum: 4

	 --------------------------------------------------------
	                 NBF =   487, NAUX =  1105
	 --------------------------------------------------------
	   CLASS    FOCC     OCC    AOCC    AVIR     VIR    FVIR
	   PAIRS       0      30      30     457     457       0
	 --------------------------------------------------------

  DFHelper Memory: AOs need 1.943 GiB; user supplied 22.352 GiB. Using in-core AOs.


         ------------------------------------------------------------
                                     CPHF                           
                                  Rob Parrish                       
         ------------------------------------------------------------

  ==> Geometry <==

    Molecular point group: c1
    Full point group: C1

    Geometry (in Angstrom), charge = 0, multiplicity = 1:

       Center              X                  Y                   Z               Mass       
    ------------   -----------------  -----------------  -----------------  -----------------
         S           -0.770445147426    -1.160602337486     0.039570012316    31.972071174400
         N           -0.105149147426     1.312033662514    -0.247944987684    14.003074004430
         C            1.833922852574    -0.199254337486    -0.567801987684    12.000000000000
         C            0.387981852574     0.090618662514    -0.306799987684    12.000000000000
         C            2.707065852574     0.196769662514     0.625476012316    12.000000000000
         C           -1.979728147426     0.032527662514     0.265147012316    12.000000000000
         C           -1.439394147426     1.281100662514     0.069954012316    12.000000000000
         H            1.964025852574    -1.261140337486    -0.803172987684     1.007825032230
         H            2.133829852574     0.369034662514    -1.454414987684     1.007825032230
         H            2.573679852574     1.258043662514     0.846133012316     1.007825032230
         H            3.763969852574     0.011797662514     0.412136012316     1.007825032230
         H            2.429389852574    -0.376920337486     1.514160012316     1.007825032230
         H           -3.000187147426    -0.228712337486     0.511710012316     1.007825032230
         H           -1.939761847426     2.126250662514     0.139480712316     1.007825032230

  Nuclear repulsion =  351.563063110936923
  Reference energy  = -645.479981243347197

  ==> Basis Set <==

  Basis Set: AUG-CC-PVTZ
    Blend: AUG-CC-PVTZ
    Number of shells: 163
    Number of basis function: 487
    Number of Cartesian functions: 564
    Spherical Harmonics?: true
    Max angular momentum: 3

  ==> CGRSolver (by Rob Parrish) <==

   Number of roots    =         1
   Preconditioning    =    JACOBI
   Convergence cutoff =     1E-06
   Maximum iterations =       100

  ==> CPHFRHamiltonian (by Rob Parrish) <== 

  ==> MemDFJK: Density-Fitted J/K Matrices <==

    J tasked:                   Yes
    K tasked:                   Yes
    wK tasked:                   No
    OpenMP threads:               8
    Memory [MiB]:             22888
    Algorithm:                 Disk
    Schwarz Cutoff:           1E-12
    Mask sparsity (%):       2.9726
    Fitting Condition:        1E-10

   => Auxiliary Basis Set <=

  Basis Set: (AUG-CC-PVTZ AUX)
    Blend: AUG-CC-PVTZ-JKFIT
    Number of shells: 320
    Number of basis function: 1092
    Number of Cartesian functions: 1351
    Spherical Harmonics?: true
    Max angular momentum: 4

  ==> CPHF Iterations <==

  => Iterations <=

             Iter  Converged  Remaining    Residual
  CGR           1          0          1   1.329E-01
  CGR           2          0          1   4.791E-02
  CGR           3          0          1   2.586E-02
  CGR           4          0          1   8.893E-03
  CGR           5          0          1   2.887E-03
  CGR           6          0          1   1.238E-03
  CGR           7          0          1   5.053E-04
  CGR           8          0          1   2.021E-04
  CGR           9          0          1   6.913E-05
  CGR          10          0          1   2.650E-05
  CGR          11          0          1   1.075E-05
  CGR          12          0          1   3.210E-06
  CGR          13          1          0   8.304E-07

    CGRSolver converged.

	-----------------------------------------------------------
	 ==================> DF-MP2 Energies <==================== 
	-----------------------------------------------------------
	 Reference Energy          =    -645.4799812433471971 [Eh]
	 Singles Energy            =      -0.0000000000000000 [Eh]
	 Same-Spin Energy          =      -0.3321539346550648 [Eh]
	 Opposite-Spin Energy      =      -1.0393156365310245 [Eh]
	 Correlation Energy        =      -1.3714695711860894 [Eh]
	 Total Energy              =    -646.8514508145333366 [Eh]
	-----------------------------------------------------------
	 ================> DF-SCS-MP2 Energies <================== 
	-----------------------------------------------------------
	 SCS Same-Spin Scale       =       0.3333333333333333 [-]
	 SCS Opposite-Spin Scale   =       1.2000000000000000 [-]
	 SCS Same-Spin Energy      =      -0.1107179782183549 [Eh]
	 SCS Opposite-Spin Energy  =      -1.2471787638372294 [Eh]
	 SCS Correlation Energy    =      -1.3578967420555843 [Eh]
	 SCS Total Energy          =    -646.8378779854027698 [Eh]
	-----------------------------------------------------------



Properties will be evaluated at   0.000000,  -0.000000,  -0.000000 [a0]

Properties computed using the MP2 density matrix

  Nuclear Dipole Moment: [e a0]
     X:     7.4094      Y:     1.7452      Z:     1.0949

  Electronic Dipole Moment: [e a0]
     X:    -7.5478      Y:    -2.2375      Z:    -0.9886

  Dipole Moment: [e a0]
     X:    -0.1385      Y:    -0.4923      Z:     0.1062     Total:     0.5223

  Dipole Moment: [D]
     X:    -0.3519      Y:    -1.2512      Z:     0.2700     Total:     1.3275


*** tstop() called on node58.bme.utexas.edu at Tue Feb  2 21:04:21 2021
Module time:
	user time   =     363.02 seconds =       6.05 minutes
	system time =      18.27 seconds =       0.30 minutes
	total time  =         59 seconds =       0.98 minutes
Total time:
	user time   =     505.54 seconds =       8.43 minutes
	system time =      35.14 seconds =       0.59 minutes
	total time  =         88 seconds =       1.47 minutes

    Psi4 stopped on: Tuesday, 02 February 2021 09:04PM
    Psi4 wall time for execution: 0:01:28.62

*** Psi4 exiting successfully. Buy a developer a beer!
