163_23-Dimethylbutane Gaussian SP Calculation on node58.bme.utexas.edu  
Freq      RMP2-FC                                                     6-31G(d)            
Number of atoms                            I               20
Info1-9                                    I   N=           9
          31          30        1002           0           0         100
           6           2           1
Charge                                     I                0
Multiplicity                               I                1
Number of electrons                        I               50
Number of alpha electrons                  I               25
Number of beta electrons                   I               25
Number of basis functions                  I              118
Number of independent functions            I              118
Number of point charges in /Mol/           I                0
Number of translation vectors              I                0
Atomic numbers                             I   N=          20
           6           6           6           6           6           6
           1           1           1           1           1           1
           1           1           1           1           1           1
           1           1
Nuclear charges                            R   N=          20
  6.00000000E+00  6.00000000E+00  6.00000000E+00  6.00000000E+00  6.00000000E+00
  6.00000000E+00  1.00000000E+00  1.00000000E+00  1.00000000E+00  1.00000000E+00
  1.00000000E+00  1.00000000E+00  1.00000000E+00  1.00000000E+00  1.00000000E+00
  1.00000000E+00  1.00000000E+00  1.00000000E+00  1.00000000E+00  1.00000000E+00
Current cartesian coordinates              R   N=          60
  1.32831754E+00  5.99672877E-01 -7.19214571E-01 -1.32841363E+00 -5.99683047E-01
 -7.19026599E-01  1.85693154E+00  2.25162453E+00  1.59309400E+00  3.40860096E+00
 -1.38440451E+00 -1.02040603E+00 -1.85671554E+00 -2.25159790E+00  1.59337955E+00
 -3.40874050E+00  1.38438648E+00 -1.01997496E+00  1.40531695E+00  1.82748327E+00
 -2.39519967E+00 -1.40563541E+00 -1.82752217E+00 -2.39498033E+00  1.92949062E+00
  1.11623988E+00  3.32018582E+00  3.68851821E+00  3.19259280E+00  1.39265985E+00
  4.25624297E-01  3.72018689E+00  1.84838280E+00  5.25252242E+00 -4.77251151E-01
 -1.26109616E+00  3.53087580E+00 -2.60685141E+00  6.43126631E-01  3.06705202E+00
 -2.58225221E+00 -2.67293493E+00 -4.25370155E-01 -3.72015234E+00  1.84850187E+00
 -1.92904721E+00 -1.11618477E+00  3.32046211E+00 -3.68832648E+00 -3.19257406E+00
  1.39320460E+00 -3.53079827E+00  2.60685972E+00  6.43554080E-01 -5.25269233E+00
  4.77226342E-01 -1.26040684E+00 -3.06741265E+00  2.58220860E+00 -2.67256815E+00
Force Field                                I                0
Int Atom Types                             I   N=          20
           0           0           0           0           0           0
           0           0           0           0           0           0
           0           0           0           0           0           0
           0           0
MM charges                                 R   N=          20
  0.00000000E+00  0.00000000E+00  0.00000000E+00  0.00000000E+00  0.00000000E+00
  0.00000000E+00  0.00000000E+00  0.00000000E+00  0.00000000E+00  0.00000000E+00
  0.00000000E+00  0.00000000E+00  0.00000000E+00  0.00000000E+00  0.00000000E+00
  0.00000000E+00  0.00000000E+00  0.00000000E+00  0.00000000E+00  0.00000000E+00
Integer atomic weights                     I   N=          20
          12          12          12          12          12          12
           1           1           1           1           1           1
           1           1           1           1           1           1
           1           1
Real atomic weights                        R   N=          20
  1.20000000E+01  1.20000000E+01  1.20000000E+01  1.20000000E+01  1.20000000E+01
  1.20000000E+01  1.00782504E+00  1.00782504E+00  1.00782504E+00  1.00782504E+00
  1.00782504E+00  1.00782504E+00  1.00782504E+00  1.00782504E+00  1.00782504E+00
  1.00782504E+00  1.00782504E+00  1.00782504E+00  1.00782504E+00  1.00782504E+00
Atom fragment info                         I   N=          20
           0           0           0           0           0           0
           0           0           0           0           0           0
           0           0           0           0           0           0
           0           0
Atom residue num                           I   N=          20
           0           0           0           0           0           0
           0           0           0           0           0           0
           0           0           0           0           0           0
           0           0
Nuclear spins                              I   N=          20
           0           0           0           0           0           0
           1           1           1           1           1           1
           1           1           1           1           1           1
           1           1
Nuclear ZEff                               R   N=          20
 -3.60000000E+00 -3.60000000E+00 -3.60000000E+00 -3.60000000E+00 -3.60000000E+00
 -3.60000000E+00 -1.00000000E+00 -1.00000000E+00 -1.00000000E+00 -1.00000000E+00
 -1.00000000E+00 -1.00000000E+00 -1.00000000E+00 -1.00000000E+00 -1.00000000E+00
 -1.00000000E+00 -1.00000000E+00 -1.00000000E+00 -1.00000000E+00 -1.00000000E+00
Nuclear QMom                               R   N=          20
  0.00000000E+00  0.00000000E+00  0.00000000E+00  0.00000000E+00  0.00000000E+00
  0.00000000E+00  0.00000000E+00  0.00000000E+00  0.00000000E+00  0.00000000E+00
  0.00000000E+00  0.00000000E+00  0.00000000E+00  0.00000000E+00  0.00000000E+00
  0.00000000E+00  0.00000000E+00  0.00000000E+00  0.00000000E+00  0.00000000E+00
Nuclear GFac                               R   N=          20
  0.00000000E+00  0.00000000E+00  0.00000000E+00  0.00000000E+00  0.00000000E+00
  0.00000000E+00  2.79284600E+00  2.79284600E+00  2.79284600E+00  2.79284600E+00
  2.79284600E+00  2.79284600E+00  2.79284600E+00  2.79284600E+00  2.79284600E+00
  2.79284600E+00  2.79284600E+00  2.79284600E+00  2.79284600E+00  2.79284600E+00
MicOpt                                     I   N=          20
          -1          -1          -1          -1          -1          -1
          -1          -1          -1          -1          -1          -1
          -1          -1          -1          -1          -1          -1
          -1          -1
Number of contracted shells                I               52
Number of primitive shells                 I              122
Pure/Cartesian d shells                    I                1
Pure/Cartesian f shells                    I                0
Highest angular momentum                   I                2
Largest degree of contraction              I                6
Shell types                                I   N=          52
           0          -1          -1           2           0          -1
          -1           2           0          -1          -1           2
           0          -1          -1           2           0          -1
          -1           2           0          -1          -1           2
           0           0           0           0           0           0
           0           0           0           0           0           0
           0           0           0           0           0           0
           0           0           0           0           0           0
           0           0           0           0
Number of primitives per shell             I   N=          52
           6           3           1           1           6           3
           1           1           6           3           1           1
           6           3           1           1           6           3
           1           1           6           3           1           1
           3           1           3           1           3           1
           3           1           3           1           3           1
           3           1           3           1           3           1
           3           1           3           1           3           1
           3           1           3           1
Shell to atom map                          I   N=          52
           1           1           1           1           2           2
           2           2           3           3           3           3
           4           4           4           4           5           5
           5           5           6           6           6           6
           7           7           8           8           9           9
          10          10          11          11          12          12
          13          13          14          14          15          15
          16          16          17          17          18          18
          19          19          20          20
Primitive exponents                        R   N=         122
  3.04752488E+03  4.57369518E+02  1.03948685E+02  2.92101553E+01  9.28666296E+00
  3.16392696E+00  7.86827235E+00  1.88128854E+00  5.44249258E-01  1.68714478E-01
  8.00000000E-01  3.04752488E+03  4.57369518E+02  1.03948685E+02  2.92101553E+01
  9.28666296E+00  3.16392696E+00  7.86827235E+00  1.88128854E+00  5.44249258E-01
  1.68714478E-01  8.00000000E-01  3.04752488E+03  4.57369518E+02  1.03948685E+02
  2.92101553E+01  9.28666296E+00  3.16392696E+00  7.86827235E+00  1.88128854E+00
  5.44249258E-01  1.68714478E-01  8.00000000E-01  3.04752488E+03  4.57369518E+02
  1.03948685E+02  2.92101553E+01  9.28666296E+00  3.16392696E+00  7.86827235E+00
  1.88128854E+00  5.44249258E-01  1.68714478E-01  8.00000000E-01  3.04752488E+03
  4.57369518E+02  1.03948685E+02  2.92101553E+01  9.28666296E+00  3.16392696E+00
  7.86827235E+00  1.88128854E+00  5.44249258E-01  1.68714478E-01  8.00000000E-01
  3.04752488E+03  4.57369518E+02  1.03948685E+02  2.92101553E+01  9.28666296E+00
  3.16392696E+00  7.86827235E+00  1.88128854E+00  5.44249258E-01  1.68714478E-01
  8.00000000E-01  1.87311370E+01  2.82539436E+00  6.40121692E-01  1.61277759E-01
  1.87311370E+01  2.82539436E+00  6.40121692E-01  1.61277759E-01  1.87311370E+01
  2.82539436E+00  6.40121692E-01  1.61277759E-01  1.87311370E+01  2.82539436E+00
  6.40121692E-01  1.61277759E-01  1.87311370E+01  2.82539436E+00  6.40121692E-01
  1.61277759E-01  1.87311370E+01  2.82539436E+00  6.40121692E-01  1.61277759E-01
  1.87311370E+01  2.82539436E+00  6.40121692E-01  1.61277759E-01  1.87311370E+01
  2.82539436E+00  6.40121692E-01  1.61277759E-01  1.87311370E+01  2.82539436E+00
  6.40121692E-01  1.61277759E-01  1.87311370E+01  2.82539436E+00  6.40121692E-01
  1.61277759E-01  1.87311370E+01  2.82539436E+00  6.40121692E-01  1.61277759E-01
  1.87311370E+01  2.82539436E+00  6.40121692E-01  1.61277759E-01  1.87311370E+01
  2.82539436E+00  6.40121692E-01  1.61277759E-01  1.87311370E+01  2.82539436E+00
  6.40121692E-01  1.61277759E-01
Contraction coefficients                   R   N=         122
  1.83473713E-03  1.40373228E-02  6.88426223E-02  2.32184443E-01  4.67941348E-01
  3.62311985E-01 -1.19332420E-01 -1.60854152E-01  1.14345644E+00  1.00000000E+00
  1.00000000E+00  1.83473713E-03  1.40373228E-02  6.88426223E-02  2.32184443E-01
  4.67941348E-01  3.62311985E-01 -1.19332420E-01 -1.60854152E-01  1.14345644E+00
  1.00000000E+00  1.00000000E+00  1.83473713E-03  1.40373228E-02  6.88426223E-02
  2.32184443E-01  4.67941348E-01  3.62311985E-01 -1.19332420E-01 -1.60854152E-01
  1.14345644E+00  1.00000000E+00  1.00000000E+00  1.83473713E-03  1.40373228E-02
  6.88426223E-02  2.32184443E-01  4.67941348E-01  3.62311985E-01 -1.19332420E-01
 -1.60854152E-01  1.14345644E+00  1.00000000E+00  1.00000000E+00  1.83473713E-03
  1.40373228E-02  6.88426223E-02  2.32184443E-01  4.67941348E-01  3.62311985E-01
 -1.19332420E-01 -1.60854152E-01  1.14345644E+00  1.00000000E+00  1.00000000E+00
  1.83473713E-03  1.40373228E-02  6.88426223E-02  2.32184443E-01  4.67941348E-01
  3.62311985E-01 -1.19332420E-01 -1.60854152E-01  1.14345644E+00  1.00000000E+00
  1.00000000E+00  3.34946043E-02  2.34726953E-01  8.13757326E-01  1.00000000E+00
  3.34946043E-02  2.34726953E-01  8.13757326E-01  1.00000000E+00  3.34946043E-02
  2.34726953E-01  8.13757326E-01  1.00000000E+00  3.34946043E-02  2.34726953E-01
  8.13757326E-01  1.00000000E+00  3.34946043E-02  2.34726953E-01  8.13757326E-01
  1.00000000E+00  3.34946043E-02  2.34726953E-01  8.13757326E-01  1.00000000E+00
  3.34946043E-02  2.34726953E-01  8.13757326E-01  1.00000000E+00  3.34946043E-02
  2.34726953E-01  8.13757326E-01  1.00000000E+00  3.34946043E-02  2.34726953E-01
  8.13757326E-01  1.00000000E+00  3.34946043E-02  2.34726953E-01  8.13757326E-01
  1.00000000E+00  3.34946043E-02  2.34726953E-01  8.13757326E-01  1.00000000E+00
  3.34946043E-02  2.34726953E-01  8.13757326E-01  1.00000000E+00  3.34946043E-02
  2.34726953E-01  8.13757326E-01  1.00000000E+00  3.34946043E-02  2.34726953E-01
  8.13757326E-01  1.00000000E+00
P(S=P) Contraction coefficients            R   N=         122
  0.00000000E+00  0.00000000E+00  0.00000000E+00  0.00000000E+00  0.00000000E+00
  0.00000000E+00  6.89990666E-02  3.16423961E-01  7.44308291E-01  1.00000000E+00
  0.00000000E+00  0.00000000E+00  0.00000000E+00  0.00000000E+00  0.00000000E+00
  0.00000000E+00  0.00000000E+00  6.89990666E-02  3.16423961E-01  7.44308291E-01
  1.00000000E+00  0.00000000E+00  0.00000000E+00  0.00000000E+00  0.00000000E+00
  0.00000000E+00  0.00000000E+00  0.00000000E+00  6.89990666E-02  3.16423961E-01
  7.44308291E-01  1.00000000E+00  0.00000000E+00  0.00000000E+00  0.00000000E+00
  0.00000000E+00  0.00000000E+00  0.00000000E+00  0.00000000E+00  6.89990666E-02
  3.16423961E-01  7.44308291E-01  1.00000000E+00  0.00000000E+00  0.00000000E+00
  0.00000000E+00  0.00000000E+00  0.00000000E+00  0.00000000E+00  0.00000000E+00
  6.89990666E-02  3.16423961E-01  7.44308291E-01  1.00000000E+00  0.00000000E+00
  0.00000000E+00  0.00000000E+00  0.00000000E+00  0.00000000E+00  0.00000000E+00
  0.00000000E+00  6.89990666E-02  3.16423961E-01  7.44308291E-01  1.00000000E+00
  0.00000000E+00  0.00000000E+00  0.00000000E+00  0.00000000E+00  0.00000000E+00
  0.00000000E+00  0.00000000E+00  0.00000000E+00  0.00000000E+00  0.00000000E+00
  0.00000000E+00  0.00000000E+00  0.00000000E+00  0.00000000E+00  0.00000000E+00
  0.00000000E+00  0.00000000E+00  0.00000000E+00  0.00000000E+00  0.00000000E+00
  0.00000000E+00  0.00000000E+00  0.00000000E+00  0.00000000E+00  0.00000000E+00
  0.00000000E+00  0.00000000E+00  0.00000000E+00  0.00000000E+00  0.00000000E+00
  0.00000000E+00  0.00000000E+00  0.00000000E+00  0.00000000E+00  0.00000000E+00
  0.00000000E+00  0.00000000E+00  0.00000000E+00  0.00000000E+00  0.00000000E+00
  0.00000000E+00  0.00000000E+00  0.00000000E+00  0.00000000E+00  0.00000000E+00
  0.00000000E+00  0.00000000E+00  0.00000000E+00  0.00000000E+00  0.00000000E+00
  0.00000000E+00  0.00000000E+00  0.00000000E+00  0.00000000E+00  0.00000000E+00
  0.00000000E+00  0.00000000E+00
Coordinates of each shell                  R   N=         156
  1.32831754E+00  5.99672877E-01 -7.19214571E-01  1.32831754E+00  5.99672877E-01
 -7.19214571E-01  1.32831754E+00  5.99672877E-01 -7.19214571E-01  1.32831754E+00
  5.99672877E-01 -7.19214571E-01 -1.32841363E+00 -5.99683047E-01 -7.19026599E-01
 -1.32841363E+00 -5.99683047E-01 -7.19026599E-01 -1.32841363E+00 -5.99683047E-01
 -7.19026599E-01 -1.32841363E+00 -5.99683047E-01 -7.19026599E-01  1.85693154E+00
  2.25162453E+00  1.59309400E+00  1.85693154E+00  2.25162453E+00  1.59309400E+00
  1.85693154E+00  2.25162453E+00  1.59309400E+00  1.85693154E+00  2.25162453E+00
  1.59309400E+00  3.40860096E+00 -1.38440451E+00 -1.02040603E+00  3.40860096E+00
 -1.38440451E+00 -1.02040603E+00  3.40860096E+00 -1.38440451E+00 -1.02040603E+00
  3.40860096E+00 -1.38440451E+00 -1.02040603E+00 -1.85671554E+00 -2.25159790E+00
  1.59337955E+00 -1.85671554E+00 -2.25159790E+00  1.59337955E+00 -1.85671554E+00
 -2.25159790E+00  1.59337955E+00 -1.85671554E+00 -2.25159790E+00  1.59337955E+00
 -3.40874050E+00  1.38438648E+00 -1.01997496E+00 -3.40874050E+00  1.38438648E+00
 -1.01997496E+00 -3.40874050E+00  1.38438648E+00 -1.01997496E+00 -3.40874050E+00
  1.38438648E+00 -1.01997496E+00  1.40531695E+00  1.82748327E+00 -2.39519967E+00
  1.40531695E+00  1.82748327E+00 -2.39519967E+00 -1.40563541E+00 -1.82752217E+00
 -2.39498033E+00 -1.40563541E+00 -1.82752217E+00 -2.39498033E+00  1.92949062E+00
  1.11623988E+00  3.32018582E+00  1.92949062E+00  1.11623988E+00  3.32018582E+00
  3.68851821E+00  3.19259280E+00  1.39265985E+00  3.68851821E+00  3.19259280E+00
  1.39265985E+00  4.25624297E-01  3.72018689E+00  1.84838280E+00  4.25624297E-01
  3.72018689E+00  1.84838280E+00  5.25252242E+00 -4.77251151E-01 -1.26109616E+00
  5.25252242E+00 -4.77251151E-01 -1.26109616E+00  3.53087580E+00 -2.60685141E+00
  6.43126631E-01  3.53087580E+00 -2.60685141E+00  6.43126631E-01  3.06705202E+00
 -2.58225221E+00 -2.67293493E+00  3.06705202E+00 -2.58225221E+00 -2.67293493E+00
 -4.25370155E-01 -3.72015234E+00  1.84850187E+00 -4.25370155E-01 -3.72015234E+00
  1.84850187E+00 -1.92904721E+00 -1.11618477E+00  3.32046211E+00 -1.92904721E+00
 -1.11618477E+00  3.32046211E+00 -3.68832648E+00 -3.19257406E+00  1.39320460E+00
 -3.68832648E+00 -3.19257406E+00  1.39320460E+00 -3.53079827E+00  2.60685972E+00
  6.43554080E-01 -3.53079827E+00  2.60685972E+00  6.43554080E-01 -5.25269233E+00
  4.77226342E-01 -1.26040684E+00 -5.25269233E+00  4.77226342E-01 -1.26040684E+00
 -3.06741265E+00  2.58220860E+00 -2.67256815E+00 -3.06741265E+00  2.58220860E+00
 -2.67256815E+00
Constraint Structure                       R   N=          60
  1.32831754E+00  5.99672877E-01 -7.19214571E-01 -1.32841363E+00 -5.99683047E-01
 -7.19026599E-01  1.85693154E+00  2.25162453E+00  1.59309400E+00  3.40860096E+00
 -1.38440451E+00 -1.02040603E+00 -1.85671554E+00 -2.25159790E+00  1.59337955E+00
 -3.40874050E+00  1.38438648E+00 -1.01997496E+00  1.40531695E+00  1.82748327E+00
 -2.39519967E+00 -1.40563541E+00 -1.82752217E+00 -2.39498033E+00  1.92949062E+00
  1.11623988E+00  3.32018582E+00  3.68851821E+00  3.19259280E+00  1.39265985E+00
  4.25624297E-01  3.72018689E+00  1.84838280E+00  5.25252242E+00 -4.77251151E-01
 -1.26109616E+00  3.53087580E+00 -2.60685141E+00  6.43126631E-01  3.06705202E+00
 -2.58225221E+00 -2.67293493E+00 -4.25370155E-01 -3.72015234E+00  1.84850187E+00
 -1.92904721E+00 -1.11618477E+00  3.32046211E+00 -3.68832648E+00 -3.19257406E+00
  1.39320460E+00 -3.53079827E+00  2.60685972E+00  6.43554080E-01 -5.25269233E+00
  4.77226342E-01 -1.26040684E+00 -3.06741265E+00  2.58220860E+00 -2.67256815E+00
Num ILSW                                   I              100
ILSW                                       I   N=         100
           0           1           0           0           2           0
           0           0           0           0           0          -1
           0           0           0           0           0           0
           0           0           0           0           1           0
           1           0           0           0           0           0
           0           0      100000           0          -1           0
           0           0           0           0           0           0
           0           0           0           1           1           0
           0           0           1           0           0           0
           0           0           4          40           0           0
           0           0           0           0           0           0
           0           0           0           0           0           0
           0           0           0           0           0           0
           0           0           0           0           0           0
           0           0           0           0           0           0
           0           0           0           0           0           0
           0           0           0           0
Num RLSW                                   I               40
RLSW                                       R   N=          40
  1.00000000E+00  1.00000000E+00  1.00000000E+00  1.00000000E+00  1.00000000E+00
  0.00000000E+00  0.00000000E+00  1.00000000E+00  0.00000000E+00  0.00000000E+00
  0.00000000E+00  0.00000000E+00  1.00000000E+00  0.00000000E+00  0.00000000E+00
  0.00000000E+00  0.00000000E+00  1.00000000E+00  0.00000000E+00  0.00000000E+00
  0.00000000E+00  0.00000000E+00  1.00000000E+00  0.00000000E+00  0.00000000E+00
  0.00000000E+00  0.00000000E+00  1.00000000E+00  0.00000000E+00  0.00000000E+00
  0.00000000E+00  0.00000000E+00  0.00000000E+00  0.00000000E+00  0.00000000E+00
  0.00000000E+00  0.00000000E+00  0.00000000E+00  1.00000000E+00  1.00000000E+00
MxBond                                     I                4
NBond                                      I   N=          20
           4           4           4           4           4           4
           1           1           1           1           1           1
           1           1           1           1           1           1
           1           1
IBond                                      I   N=          80
           2           3           4           7           1           5
           6           8           1           9          10          11
           1          12          13          14           2          15
          16          17           2          18          19          20
           1           0           0           0           2           0
           0           0           3           0           0           0
           3           0           0           0           3           0
           0           0           4           0           0           0
           4           0           0           0           4           0
           0           0           5           0           0           0
           5           0           0           0           5           0
           0           0           6           0           0           0
           6           0           0           0           6           0
           0           0
RBond                                      R   N=          80
  1.00000000E+00  1.00000000E+00  1.00000000E+00  1.00000000E+00  1.00000000E+00
  1.00000000E+00  1.00000000E+00  1.00000000E+00  1.00000000E+00  1.00000000E+00
  1.00000000E+00  1.00000000E+00  1.00000000E+00  1.00000000E+00  1.00000000E+00
  1.00000000E+00  1.00000000E+00  1.00000000E+00  1.00000000E+00  1.00000000E+00
  1.00000000E+00  1.00000000E+00  1.00000000E+00  1.00000000E+00  1.00000000E+00
  0.00000000E+00  0.00000000E+00  0.00000000E+00  1.00000000E+00  0.00000000E+00
  0.00000000E+00  0.00000000E+00  1.00000000E+00  0.00000000E+00  0.00000000E+00
  0.00000000E+00  1.00000000E+00  0.00000000E+00  0.00000000E+00  0.00000000E+00
  1.00000000E+00  0.00000000E+00  0.00000000E+00  0.00000000E+00  1.00000000E+00
  0.00000000E+00  0.00000000E+00  0.00000000E+00  1.00000000E+00  0.00000000E+00
  0.00000000E+00  0.00000000E+00  1.00000000E+00  0.00000000E+00  0.00000000E+00
  0.00000000E+00  1.00000000E+00  0.00000000E+00  0.00000000E+00  0.00000000E+00
  1.00000000E+00  0.00000000E+00  0.00000000E+00  0.00000000E+00  1.00000000E+00
  0.00000000E+00  0.00000000E+00  0.00000000E+00  1.00000000E+00  0.00000000E+00
  0.00000000E+00  0.00000000E+00  1.00000000E+00  0.00000000E+00  0.00000000E+00
  0.00000000E+00  1.00000000E+00  0.00000000E+00  0.00000000E+00  0.00000000E+00
Virial Ratio                               R      2.000904758636204E+00
SCF Energy                                 R     -2.353622058805119E+02
MP2 Energy                                 R     -2.361592367913004E+02
Total Energy                               R     -2.361592367913004E+02
Post-SCF wavefunction norm                 R      1.591904403200982E+00
RMS Force                                  R      4.878814465586056E-07
RMS Density                                R      1.183689271034335E-09
External E-field                           R   N=          35
  0.00000000E+00  0.00000000E+00  0.00000000E+00  0.00000000E+00  0.00000000E+00
  0.00000000E+00  0.00000000E+00  0.00000000E+00  0.00000000E+00  0.00000000E+00
  0.00000000E+00  0.00000000E+00  0.00000000E+00  0.00000000E+00  0.00000000E+00
  0.00000000E+00  0.00000000E+00  0.00000000E+00  0.00000000E+00  0.00000000E+00
  0.00000000E+00  0.00000000E+00  0.00000000E+00  0.00000000E+00  0.00000000E+00
  0.00000000E+00  0.00000000E+00  0.00000000E+00  0.00000000E+00  0.00000000E+00
  0.00000000E+00  0.00000000E+00  0.00000000E+00  0.00000000E+00  0.00000000E+00
IOpCl                                      I                0
IROHF                                      I                0
Alpha Orbital Energies                     R   N=         118
 -1.12212562E+01 -1.12206827E+01 -1.12084685E+01 -1.12084673E+01 -1.12081456E+01
 -1.12081391E+01 -1.10183932E+00 -1.00948228E+00 -9.29266827E-01 -9.19649263E-01
 -8.34218020E-01 -7.31782539E-01 -6.40188830E-01 -6.08305355E-01 -6.04274947E-01
 -5.60766696E-01 -5.50530759E-01 -5.36826579E-01 -5.20734930E-01 -5.20187717E-01
 -4.87480121E-01 -4.85684448E-01 -4.44761525E-01 -4.44246388E-01 -4.35063739E-01
  2.15673874E-01  2.66162541E-01  2.66372964E-01  2.83082780E-01  2.91868051E-01
  2.93487851E-01  3.12809917E-01  3.22779823E-01  3.35021661E-01  3.40954599E-01
  3.62825918E-01  3.67775593E-01  3.75540497E-01  3.99236210E-01  4.05483549E-01
  4.21685891E-01  4.44882460E-01  4.60698091E-01  4.66072592E-01  6.98110491E-01
  7.03812605E-01  7.15226011E-01  7.19270432E-01  7.46724737E-01  7.80786268E-01
  8.30074925E-01  8.67632397E-01  9.29170498E-01  9.31038163E-01  9.67651725E-01
  9.85790271E-01  1.01460067E+00  1.02989245E+00  1.04885651E+00  1.06381121E+00
  1.13565398E+00  1.14240128E+00  1.16563832E+00  1.16871404E+00  1.17341329E+00
  1.17838286E+00  1.18281292E+00  1.19954551E+00  1.21795960E+00  1.21979874E+00
  1.23207112E+00  1.24868597E+00  1.26394899E+00  1.27528225E+00  1.28474816E+00
  1.28839235E+00  1.30121266E+00  1.53466527E+00  1.63960369E+00  1.67943226E+00
  1.68220370E+00  1.82555025E+00  1.88587297E+00  1.93561321E+00  1.97155308E+00
  1.99778572E+00  2.05800400E+00  2.09417346E+00  2.14756759E+00  2.20520368E+00
  2.23242815E+00  2.29569625E+00  2.34682298E+00  2.35590370E+00  2.39385169E+00
  2.42165508E+00  2.43562439E+00  2.44682237E+00  2.51827963E+00  2.59241012E+00
  2.59992398E+00  2.61461058E+00  2.62771559E+00  2.72670954E+00  2.73631589E+00
  2.76177856E+00  2.83757321E+00  2.93183283E+00  2.94875119E+00  3.09497578E+00
  3.11395483E+00  3.13795283E+00  4.56083826E+00  4.69714684E+00  4.71843731E+00
  4.73685627E+00  4.94130308E+00  5.05561614E+00
Alpha MO coefficients                      R   N=       13924
  7.03840634E-01  2.03386929E-02 -1.08877551E-04 -1.05965392E-04  1.24906693E-04
 -1.13645027E-02 -1.29857465E-03 -1.45368519E-06 -8.54005878E-04 -1.18181306E-03
 -1.04713840E-03 -9.76533017E-04 -1.06833916E-04 -2.47852553E-05 -4.56039291E-05
  7.03846307E-01  2.03388540E-02  1.08893627E-04  1.05966122E-04  1.24890621E-04
 -1.13646292E-02  1.29844745E-03  1.44266898E-06 -8.54180457E-04 -1.18181266E-03
 -1.04714336E-03 -9.76547144E-04 -1.06826680E-04  2.48187675E-05  4.56195545E-05
  1.54759215E-02  2.19923525E-04  7.59968350E-05 -8.52036960E-06 -5.46620859E-05
  4.02514874E-03 -8.01604307E-04 -1.22942784E-03 -1.01628371E-03 -1.62506074E-04
 -2.32774125E-04 -3.83432231E-04  7.65368226E-06 -3.58988884E-05 -1.25475857E-04
  1.59460274E-02  3.23671148E-04 -1.20616280E-06  6.89596058E-05  4.12654565E-05
  3.61893309E-03 -1.31510333E-03  7.45695028E-04  2.12767910E-04 -2.43760963E-04
 -2.98153221E-04 -1.57678751E-04  1.82949919E-04 -1.53642739E-05 -7.93559360E-06
  1.54760665E-02  2.19929167E-04 -7.60029335E-05  8.52030264E-06 -5.46528963E-05
  4.02516869E-03  8.01465646E-04  1.22941750E-03 -1.01642103E-03 -1.62497983E-04
 -2.32771473E-04 -3.83445768E-04  7.67077533E-06  3.58645597E-05  1.25473426E-04
  1.59461791E-02  3.23678048E-04  1.21228034E-06 -6.89592450E-05  4.12662311E-05
  3.61894487E-03  1.31513617E-03 -7.45696632E-04  2.12608660E-04 -2.43760752E-04
 -2.98154289E-04 -1.57682812E-04  1.82952500E-04  1.53742037E-05  7.91423396E-06
  1.27392532E-04  1.74848521E-03  1.27395982E-04  1.74850426E-03 -1.82269210E-04
 -3.83592142E-04 -1.10693379E-04  2.98827982E-04 -1.86778419E-04 -2.89037224E-04
 -1.14758009E-04  1.67493192E-04 -1.54352732E-04 -1.83879449E-04 -1.43395387E-04
 -3.44089652E-04 -1.86778971E-04 -2.89036012E-04 -1.82269983E-04 -3.83588811E-04
 -1.10694229E-04  2.98825495E-04 -1.54353396E-04 -1.83878285E-04 -1.14758598E-04
  1.67491678E-04 -1.43395857E-04 -3.44085988E-04  7.03958195E-01  2.01676970E-02
  1.54750966E-04  4.45533039E-06  9.64292120E-05 -1.67364999E-02  1.36662895E-03
  9.02110263E-04 -5.62447988E-04 -6.82552089E-04 -7.85107408E-04 -8.26409561E-04
  9.25112625E-05  2.46152614E-05 -7.22757822E-06 -7.03952522E-01 -2.01675321E-02
  1.54738409E-04  4.45605257E-06 -9.64483144E-05  1.67364054E-02  1.36671920E-03
  9.02110882E-04  5.62238913E-04  6.82548078E-04  7.85099097E-04  8.26396292E-04
 -9.25125314E-05  2.46394722E-05 -7.21383817E-06  1.71541772E-02  7.22540473E-04
 -1.20647673E-04 -1.53914364E-04 -9.05234847E-05  2.49277491E-03  1.09990271E-04
 -6.13598352E-04 -1.18798475E-03 -7.57421175E-05 -7.66750432E-05 -2.27993768E-04
 -4.27989217E-05 -4.10338788E-05 -1.73828927E-04  1.75646893E-02  7.00137831E-04
 -1.59759999E-04  5.33381732E-05  3.43692064E-05  2.55960904E-03 -8.17107183E-04
  1.09145885E-03  2.04095308E-04 -2.25406360E-04 -2.12560819E-04 -6.25972318E-06
  1.41299503E-04 -1.67622442E-06 -2.70450263E-05 -1.71540606E-02 -7.22539228E-04
 -1.20635901E-04 -1.53912858E-04  9.05415800E-05 -2.49274127E-03  1.10157443E-04
 -6.13567211E-04  1.18797328E-03  7.57315715E-05  7.66686123E-05  2.28004832E-04