
    -----------------------------------------------------------------------
          Psi4: An Open-Source Ab Initio Electronic Structure Package
                               Psi4 1.3.2 release

                         Git: Rev {HEAD} ecbda83 


    R. M. Parrish, L. A. Burns, D. G. A. Smith, A. C. Simmonett,
    A. E. DePrince III, E. G. Hohenstein, U. Bozkaya, A. Yu. Sokolov,
    R. Di Remigio, R. M. Richard, J. F. Gonthier, A. M. James,
    H. R. McAlexander, A. Kumar, M. Saitow, X. Wang, B. P. Pritchard,
    P. Verma, H. F. Schaefer III, K. Patkowski, R. A. King, E. F. Valeev,
    F. A. Evangelista, J. M. Turney, T. D. Crawford, and C. D. Sherrill,
    J. Chem. Theory Comput. 13(7) pp 3185--3197 (2017).
    (doi: 10.1021/acs.jctc.7b00174)


                         Additional Contributions by
    P. Kraus, H. Kruse, M. H. Lechner, M. C. Schieber, R. A. Shaw,
    A. Alenaizan, R. Galvelis, Z. L. Glick, S. Lehtola, and J. P. Misiewicz

    -----------------------------------------------------------------------


    Psi4 started on: Thursday, 04 February 2021 08:10PM

    Process ID: 9828
    Host:       node37.bme.utexas.edu
    PSIDATADIR: /home/xy3866/psi4conda/share/psi4
    Memory:     500.0 MiB
    Threads:    8
    
  ==> Input File <==

--------------------------------------------------------------------------
#psi4
#
memory 32 gb

molecule  {
0 1
  N        1.7773000    -0.9706020    -0.3863220
  C        1.0080060     0.0962300     0.0271750
  C       -0.4507830     0.0432590     0.0183630
  C        1.8938950     1.0905280     0.4329840
  C       -1.1961700     1.1987140    -0.2700270
  C       -1.1363230    -1.1523850     0.2941990
  C        3.1117900    -0.6733570    -0.2771830
  C        3.2093430     0.6071710     0.2411150
  C       -2.5895110     1.1608830    -0.2689850
  C       -2.5303830    -1.1922690     0.2696200
  C       -3.2626170    -0.0361670    -0.0095020
  H        1.3994420    -1.7974010    -0.8317830
  H        1.6076040     2.0422160     0.8629880
  H       -0.6712930     2.1216380    -0.5070250
  H       -0.5746270    -2.0444360     0.5668450
  H        3.8716190    -1.3816710    -0.5776140
  H        4.0463530     1.0773647     0.4488101
  H       -3.1528190     2.0640850    -0.4925600
  H       -3.0466780    -2.1247140     0.4868240
  H       -4.3493910    -0.0663800    -0.0199320
units angstrom
no_reorient  #important for SAPT in psi4, default
symmetry c1  #important for SAPT in psi4, default
}

set PROPERTIES_ORIGIN ["COM"]
properties('MP2/aug-cc-pvtz', properties = ['dipole'])
--------------------------------------------------------------------------

  Memory set to  29.802 GiB by Python driver.
    SCF Algorithm Type (re)set to DF.

*** tstart() called on node37.bme.utexas.edu
*** at Thu Feb  4 20:10:40 2021

   => Loading Basis Set <=

    Name: AUG-CC-PVTZ
    Role: ORBITAL
    Keyword: BASIS
    atoms 1     entry N          line   281 file /home/xy3866/psi4conda/share/psi4/basis/aug-cc-pvtz.gbs 
    atoms 2-11  entry C          line   235 file /home/xy3866/psi4conda/share/psi4/basis/aug-cc-pvtz.gbs 
    atoms 12-20 entry H          line    36 file /home/xy3866/psi4conda/share/psi4/basis/aug-cc-pvtz.gbs 


         ---------------------------------------------------------
                                   SCF
               by Justin Turney, Rob Parrish, Andy Simmonett
                          and Daniel G. A. Smith
                              RHF Reference
                        8 Threads,  30517 MiB Core
         ---------------------------------------------------------

  ==> Geometry <==

    Molecular point group: c1
    Full point group: C1

    Geometry (in Angstrom), charge = 0, multiplicity = 1:

       Center              X                  Y                   Z               Mass       
    ------------   -----------------  -----------------  -----------------  -----------------
         N            1.772421169911    -0.970669928739    -0.386458077404    14.003074004430
         C            1.003127169911     0.096162071261     0.027038922596    12.000000000000
         C           -0.455661830089     0.043191071261     0.018226922596    12.000000000000
         C            1.889016169911     1.090460071261     0.432847922596    12.000000000000
         C           -1.201048830089     1.198646071261    -0.270163077404    12.000000000000
         C           -1.141201830089    -1.152452928739     0.294062922596    12.000000000000
         C            3.106911169911    -0.673424928739    -0.277319077404    12.000000000000
         C            3.204464169911     0.607103071261     0.240978922596    12.000000000000
         C           -2.594389830089     1.160815071261    -0.269121077404    12.000000000000
         C           -2.535261830089    -1.192336928739     0.269483922596    12.000000000000
         C           -3.267495830089    -0.036234928739    -0.009638077404    12.000000000000
         H            1.394563169911    -1.797468928739    -0.831919077404     1.007825032230
         H            1.602725169911     2.042148071261     0.862851922596     1.007825032230
         H           -0.676171830089     2.121570071261    -0.507161077404     1.007825032230
         H           -0.579505830089    -2.044503928739     0.566708922596     1.007825032230
         H            3.866740169911    -1.381738928739    -0.577750077404     1.007825032230
         H            4.041474169911     1.077296771261     0.448674022596     1.007825032230
         H           -3.157697830089     2.064017071261    -0.492696077404     1.007825032230
         H           -3.051556830089    -2.124781928739     0.486687922596     1.007825032230
         H           -4.354269830089    -0.066447928739    -0.020068077404     1.007825032230

  Running in c1 symmetry.

  Rotational constants: A =      0.11649  B =      0.02255  C =      0.01945 [cm^-1]
  Rotational constants: A =   3492.20169  B =    676.09817  C =    583.00645 [MHz]
  Nuclear repulsion =  537.374974929527184

  Charge       = 0
  Multiplicity = 1
  Electrons    = 76
  Nalpha       = 38
  Nbeta        = 38

  ==> Algorithm <==

  SCF Algorithm Type is DF.
  DIIS enabled.
  MOM disabled.
  Fractional occupation disabled.
  Guess Type is SAD.
  Energy threshold   = 1.00e-10
  Density threshold  = 1.00e-10
  Integral threshold = 0.00e+00

  ==> Primary Basis <==

  Basis Set: AUG-CC-PVTZ
    Blend: AUG-CC-PVTZ
    Number of shells: 235
    Number of basis function: 713
    Number of Cartesian functions: 830
    Spherical Harmonics?: true
    Max angular momentum: 3

   => Loading Basis Set <=

    Name: (AUG-CC-PVTZ AUX)
    Role: JKFIT
    Keyword: DF_BASIS_SCF
    atoms 1     entry N          line   224 file /home/xy3866/psi4conda/share/psi4/basis/aug-cc-pvtz-jkfit.gbs 
    atoms 2-11  entry C          line   162 file /home/xy3866/psi4conda/share/psi4/basis/aug-cc-pvtz-jkfit.gbs 
    atoms 12-20 entry H          line    70 file /home/xy3866/psi4conda/share/psi4/basis/aug-cc-pvtz-jkfit.gbs 

  ==> Pre-Iterations <==

   -------------------------------------------------------
    Irrep   Nso     Nmo     Nalpha   Nbeta   Ndocc  Nsocc
   -------------------------------------------------------
     A        713     713       0       0       0       0
   -------------------------------------------------------
    Total     713     713      38      38      38       0
   -------------------------------------------------------

  ==> Integral Setup <==

  DFHelper Memory: AOs need 5.614 GiB; user supplied 22.352 GiB. Using in-core AOs.

  ==> MemDFJK: Density-Fitted J/K Matrices <==

    J tasked:                   Yes
    K tasked:                   Yes
    wK tasked:                   No
    OpenMP threads:               8
    Memory [MiB]:             22888
    Algorithm:                 Disk
    Schwarz Cutoff:           1E-12
    Mask sparsity (%):       7.4174
    Fitting Condition:        1E-10

   => Auxiliary Basis Set <=

  Basis Set: (AUG-CC-PVTZ AUX)
    Blend: AUG-CC-PVTZ-JKFIT
    Number of shells: 456
    Number of basis function: 1558
    Number of Cartesian functions: 1936
    Spherical Harmonics?: true
    Max angular momentum: 4

  Minimum eigenvalue in the overlap matrix is 5.3326504589E-07.
  Using Symmetric Orthogonalization.

  SCF Guess: Superposition of Atomic Densities via on-the-fly atomic UHF.

  ==> Iterations <==

                           Total Energy        Delta E     RMS |[F,P]|

   @DF-RHF iter SAD:  -438.20759877769194   -4.38208e+02   0.00000e+00 
   @DF-RHF iter   1:  -438.19387092725856    1.37279e-02   1.00377e-03 DIIS
   @DF-RHF iter   2:  -438.44298525570446   -2.49114e-01   4.74707e-04 DIIS
   @DF-RHF iter   3:  -438.49955787428883   -5.65726e-02   8.54273e-05 DIIS
   @DF-RHF iter   4:  -438.50245198539824   -2.89411e-03   2.72896e-05 DIIS
   @DF-RHF iter   5:  -438.50266350088799   -2.11515e-04   8.23464e-06 DIIS
   @DF-RHF iter   6:  -438.50269371832945   -3.02174e-05   2.58605e-06 DIIS
   @DF-RHF iter   7:  -438.50269915336276   -5.43503e-06   1.12663e-06 DIIS
   @DF-RHF iter   8:  -438.50270045857826   -1.30522e-06   5.44062e-07 DIIS
   @DF-RHF iter   9:  -438.50270079320325   -3.34625e-07   1.65715e-07 DIIS
   @DF-RHF iter  10:  -438.50270081183101   -1.86278e-08   6.70826e-08 DIIS
   @DF-RHF iter  11:  -438.50270081525639   -3.42538e-09   2.68896e-08 DIIS
   @DF-RHF iter  12:  -438.50270081598086   -7.24469e-10   1.29217e-08 DIIS
   @DF-RHF iter  13:  -438.50270081615423   -1.73372e-10   6.03504e-09 DIIS
   @DF-RHF iter  14:  -438.50270081620317   -4.89422e-11   2.14715e-09 DIIS
   @DF-RHF iter  15:  -438.50270081621085   -7.67386e-12   1.02883e-09 DIIS
   @DF-RHF iter  16:  -438.50270081620914    1.70530e-12   3.35552e-10 DIIS
   @DF-RHF iter  17:  -438.50270081621073   -1.59162e-12   1.33515e-10 DIIS
   @DF-RHF iter  18:  -438.50270081620920    1.53477e-12   6.93239e-11 DIIS
  Energy and wave function converged.


  ==> Post-Iterations <==

    Orbital Energies [Eh]
    ---------------------

    Doubly Occupied:                                                      

       1A    -15.607850     2A    -11.261553     3A    -11.256078  
       4A    -11.252943     5A    -11.241820     6A    -11.240536  
       7A    -11.240255     8A    -11.237725     9A    -11.237457  
      10A    -11.212518    11A    -11.201596    12A     -1.293634  
      13A     -1.155938    14A     -1.048866    15A     -1.045000  
      16A     -1.016696    17A     -0.959880    18A     -0.837739  
      19A     -0.832915    20A     -0.798002    21A     -0.768480  
      22A     -0.735626    23A     -0.680148    24A     -0.633091  
      25A     -0.629647    26A     -0.601812    27A     -0.589791  
      28A     -0.582613    29A     -0.568934    30A     -0.557463  
      31A     -0.536399    32A     -0.504360    33A     -0.501068  
      34A     -0.494395    35A     -0.363156    36A     -0.349849  
      37A     -0.341153    38A     -0.273034  

    Virtual:                                                              

      39A      0.025701    40A      0.030374    41A      0.033643  
      42A      0.040583    43A      0.042402    44A      0.050589  
      45A      0.054922    46A      0.057230    47A      0.064463  
      48A      0.083810    49A      0.090542    50A      0.095361  
      51A      0.096309    52A      0.101151    53A      0.101970  
      54A      0.109076    55A      0.113707    56A      0.116933  
      57A      0.117880    58A      0.122811    59A      0.124213  
      60A      0.125202    61A      0.129500    62A      0.133045  
      63A      0.133504    64A      0.138316    65A      0.141230  
      66A      0.144290    67A      0.145856    68A      0.150927  
      69A      0.154866    70A      0.162602    71A      0.165928  
      72A      0.168011    73A      0.174435    74A      0.179060  
      75A      0.186325    76A      0.189235    77A      0.194962  
      78A      0.203686    79A      0.205788    80A      0.222616  
      81A      0.224524    82A      0.229086    83A      0.235240  
      84A      0.237206    85A      0.239531    86A      0.247299  
      87A      0.255739    88A      0.256542    89A      0.262320  
      90A      0.265901    91A      0.272567    92A      0.274671  
      93A      0.281478    94A      0.291460    95A      0.296045  
      96A      0.298911    97A      0.302580    98A      0.305267  
      99A      0.309617   100A      0.313258   101A      0.317558  
     102A      0.321946   103A      0.323210   104A      0.327559  
     105A      0.331942   106A      0.336057   107A      0.338364  
     108A      0.341558   109A      0.346659   110A      0.349588  
     111A      0.355034   112A      0.361373   113A      0.368009  
     114A      0.371015   115A      0.376457   116A      0.387330  
     117A      0.390401   118A      0.404742   119A      0.410518  
     120A      0.416177   121A      0.420263   122A      0.423643  
     123A      0.430565   124A      0.433121   125A      0.436785  
     126A      0.439282   127A      0.443184   128A      0.449934  
     129A      0.453531   130A      0.460418   131A      0.464153  
     132A      0.467868   133A      0.469137   134A      0.474540  
     135A      0.476580   136A      0.481875   137A      0.484822  
     138A      0.488372   139A      0.491121   140A      0.496480  
     141A      0.498667   142A      0.502835   143A      0.508319  
     144A      0.510608   145A      0.512556   146A      0.519251  
     147A      0.523165   148A      0.525829   149A      0.526888  
     150A      0.529517   151A      0.533250   152A      0.535316  
     153A      0.540264   154A      0.544358   155A      0.546140  
     156A      0.547872   157A      0.556495   158A      0.560687  
     159A      0.563654   160A      0.571448   161A      0.575742  
     162A      0.582803   163A      0.589255   164A      0.597926  
     165A      0.606617   166A      0.612838   167A      0.623753  
     168A      0.629393   169A      0.633842   170A      0.640484  
     171A      0.640938   172A      0.646120   173A      0.665995  
     174A      0.672019   175A      0.677111   176A      0.679551  
     177A      0.680747   178A      0.695050   179A      0.695532  
     180A      0.705844   181A      0.708303   182A      0.715389  
     183A      0.720368   184A      0.725385   185A      0.729159  
     186A      0.737897   187A      0.749631   188A      0.751483  
     189A      0.756846   190A      0.769616   191A      0.772946  
     192A      0.778850   193A      0.779226   194A      0.797914  
     195A      0.801704   196A      0.804077   197A      0.808197  
     198A      0.820025   199A      0.825431   200A      0.832641  
     201A      0.836418   202A      0.845178   203A      0.851552  
     204A      0.855321   205A      0.864162   206A      0.870241  
     207A      0.875099   208A      0.880015   209A      0.887105  
     210A      0.890340   211A      0.891379   212A      0.897881  
     213A      0.906771   214A      0.909240   215A      0.914178  
     216A      0.918050   217A      0.920998   218A      0.928021  
     219A      0.929662   220A      0.940872   221A      0.947249  
     222A      0.951990   223A      0.960179   224A      0.964620  
     225A      0.971066   226A      0.976800   227A      0.980000  
     228A      0.985115   229A      1.003744   230A      1.006709  
     231A      1.013312   232A      1.017477   233A      1.019562  
     234A      1.021910   235A      1.025637   236A      1.034292  
     237A      1.037741   238A      1.040562   239A      1.048827  
     240A      1.052548   241A      1.055614   242A      1.062000  
     243A      1.071457   244A      1.074421   245A      1.077933  
     246A      1.083748   247A      1.088671   248A      1.091471  
     249A      1.093832   250A      1.099904   251A      1.105441  
     252A      1.111633   253A      1.113536   254A      1.121852  
     255A      1.123375   256A      1.128439   257A      1.132280  
     258A      1.144056   259A      1.147375   260A      1.148417  
     261A      1.154041   262A      1.166146   263A      1.178467  
     264A      1.181497   265A      1.183588   266A      1.186210  
     267A      1.190921   268A      1.199115   269A      1.202501  
     270A      1.205141   271A      1.210437   272A      1.214673  
     273A      1.220295   274A      1.228319   275A      1.239189  
     276A      1.241023   277A      1.246883   278A      1.248265  
     279A      1.249986   280A      1.257545   281A      1.266922  
     282A      1.274061   283A      1.286335   284A      1.290044  
     285A      1.293331   286A      1.296745   287A      1.309877  
     288A      1.314267   289A      1.329478   290A      1.333808  
     291A      1.343551   292A      1.353950   293A      1.358265  
     294A      1.367991   295A      1.377997   296A      1.386217  
     297A      1.387283   298A      1.396263   299A      1.404318  
     300A      1.406867   301A      1.419526   302A      1.420646  
     303A      1.430307   304A      1.431320   305A      1.437475  
     306A      1.445745   307A      1.462807   308A      1.465981  
     309A      1.477265   310A      1.485177   311A      1.496267  
     312A      1.501754   313A      1.511821   314A      1.523583  
     315A      1.529327   316A      1.533448   317A      1.536561  
     318A      1.546741   319A      1.550989   320A      1.557561  
     321A      1.569391   322A      1.575119   323A      1.577210  
     324A      1.590046   325A      1.600685   326A      1.612898  
     327A      1.624263   328A      1.638180   329A      1.645212  
     330A      1.663843   331A      1.680372   332A      1.684053  
     333A      1.695073   334A      1.703714   335A      1.710372  
     336A      1.715295   337A      1.726489   338A      1.731183  
     339A      1.737611   340A      1.748649   341A      1.763110  
     342A      1.771942   343A      1.782884   344A      1.789455  
     345A      1.791156   346A      1.800829   347A      1.815673  
     348A      1.822458   349A      1.837511   350A      1.843749  
     351A      1.847620   352A      1.856848   353A      1.862160  
     354A      1.867022   355A      1.882352   356A      1.884311  
     357A      1.890446   358A      1.897082   359A      1.898609  
     360A      1.909394   361A      1.933402   362A      1.939167  
     363A      1.944389   364A      1.965934   365A      1.971529  
     366A      1.975051   367A      1.979503   368A      1.983972  
     369A      1.995779   370A      2.001640   371A      2.021000  
     372A      2.027567   373A      2.039977   374A      2.042411  
     375A      2.045548   376A      2.050468   377A      2.058778  
     378A      2.062222   379A      2.071525   380A      2.074589  
     381A      2.082381   382A      2.093402   383A      2.106419  
     384A      2.113478   385A      2.118029   386A      2.120733  
     387A      2.127774   388A      2.141585   389A      2.149169  
     390A      2.162608   391A      2.167907   392A      2.200117  
     393A      2.208231   394A      2.216211   395A      2.223469  
     396A      2.226912   397A      2.237211   398A      2.265862  
     399A      2.272427   400A      2.278659   401A      2.288330  
     402A      2.302194   403A      2.311475   404A      2.322622  
     405A      2.334330   406A      2.343019   407A      2.351357  
     408A      2.365496   409A      2.376109   410A      2.387771  
     411A      2.392943   412A      2.403766   413A      2.412223  
     414A      2.415968   415A      2.437996   416A      2.447594  
     417A      2.462474   418A      2.474131   419A      2.480265  
     420A      2.495303   421A      2.512512   422A      2.532686  
     423A      2.540983   424A      2.548353   425A      2.568677  
     426A      2.581984   427A      2.591060   428A      2.596764  
     429A      2.631608   430A      2.633984   431A      2.641109  
     432A      2.653469   433A      2.684885   434A      2.696961  
     435A      2.735631   436A      2.738670   437A      2.760239  
     438A      2.776705   439A      2.783052   440A      2.809881  
     441A      2.817412   442A      2.836808   443A      2.848739  
     444A      2.878717   445A      2.897878   446A      2.921189  
     447A      2.962468   448A      3.013712   449A      3.037256  
     450A      3.049382   451A      3.054815   452A      3.076414  
     453A      3.093207   454A      3.146507   455A      3.190278  
     456A      3.194092   457A      3.206658   458A      3.235190  
     459A      3.245348   460A      3.264759   461A      3.284840  
     462A      3.293818   463A      3.305201   464A      3.333366  
     465A      3.349565   466A      3.358865   467A      3.364513  
     468A      3.378081   469A      3.385341   470A      3.394451  
     471A      3.403634   472A      3.416262   473A      3.425536  
     474A      3.437017   475A      3.447869   476A      3.454439  
     477A      3.460760   478A      3.482367   479A      3.486730  
     480A      3.492789   481A      3.506698   482A      3.523545  
     483A      3.533758   484A      3.538679   485A      3.550967  
     486A      3.555026   487A      3.570892   488A      3.574418  
     489A      3.577509   490A      3.579963   491A      3.583546  
     492A      3.600407   493A      3.611092   494A      3.623147  
     495A      3.640732   496A      3.653222   497A      3.662299  
     498A      3.664647   499A      3.694070   500A      3.698087  
     501A      3.706378   502A      3.713278   503A      3.721980  
     504A      3.727687   505A      3.740509   506A      3.752450  
     507A      3.757816   508A      3.763187   509A      3.793277  
     510A      3.800640   511A      3.803855   512A      3.817930  
     513A      3.834852   514A      3.845160   515A      3.864537  
     516A      3.869810   517A      3.875997   518A      3.886362  
     519A      3.895245   520A      3.898309   521A      3.909215  
     522A      3.919106   523A      3.936065   524A      3.939723  
     525A      3.945674   526A      3.960416   527A      3.973699  
     528A      3.983682   529A      3.990614   530A      3.997711  
     531A      4.005902   532A      4.008219   533A      4.013640  
     534A      4.031741   535A      4.037226   536A      4.045857  
     537A      4.061191   538A      4.075131   539A      4.082161  
     540A      4.097025   541A      4.112506   542A      4.118624  
     543A      4.127343   544A      4.134622   545A      4.146426  
     546A      4.153840   547A      4.164736   548A      4.171320  
     549A      4.190732   550A      4.200716   551A      4.204260  
     552A      4.228821   553A      4.235352   554A      4.235736  
     555A      4.242826   556A      4.257470   557A      4.266394  
     558A      4.271560   559A      4.282178   560A      4.294108  
     561A      4.309916   562A      4.317166   563A      4.327109  
     564A      4.344686   565A      4.356687   566A      4.360816  
     567A      4.366054   568A      4.369666   569A      4.383329  
     570A      4.403560   571A      4.405870   572A      4.415758  
     573A      4.437867   574A      4.444974   575A      4.448119  
     576A      4.455441   577A      4.460376   578A      4.468291  
     579A      4.473779   580A      4.480184   581A      4.492183  
     582A      4.500274   583A      4.515020   584A      4.533936  
     585A      4.552012   586A      4.559086   587A      4.572709  
     588A      4.591758   589A      4.608125   590A      4.618507  
     591A      4.635762   592A      4.643745   593A      4.673321  
     594A      4.690780   595A      4.719034   596A      4.722530  
     597A      4.729072   598A      4.750696   599A      4.753375  
     600A      4.760748   601A      4.789726   602A      4.798788  
     603A      4.817118   604A      4.833421   605A      4.866289  
     606A      4.866648   607A      4.882265   608A      4.898874  
     609A      4.918182   610A      4.935069   611A      4.960616  
     612A      4.972146   613A      4.981593   614A      4.986541  
     615A      5.013871   616A      5.022031   617A      5.034728  
     618A      5.047249   619A      5.058189   620A      5.066978  
     621A      5.083425   622A      5.093075   623A      5.101951  
     624A      5.113796   625A      5.128627   626A      5.138631  
     627A      5.149251   628A      5.160417   629A      5.169077  
     630A      5.172687   631A      5.174405   632A      5.182469  
     633A      5.195092   634A      5.208678   635A      5.232259  
     636A      5.241104   637A      5.249950   638A      5.275779  
     639A      5.310682   640A      5.321187   641A      5.332611  
     642A      5.345533   643A      5.350404   644A      5.387618  
     645A      5.407354   646A      5.423165   647A      5.428448  
     648A      5.442016   649A      5.465108   650A      5.485401  
     651A      5.503406   652A      5.544296   653A      5.547024  
     654A      5.592129   655A      5.624375   656A      5.634952  
     657A      5.650709   658A      5.707490   659A      5.720935  
     660A      5.744590   661A      5.772585   662A      5.778340  
     663A      5.795939   664A      5.811531   665A      5.830381  
     666A      5.865895   667A      5.889107   668A      5.930763  
     669A      5.945188   670A      5.998670   671A      6.037793  
     672A      6.103167   673A      6.151045   674A      6.167724  
     675A      6.191716   676A      6.198847   677A      6.230777  
     678A      6.254524   679A      6.304411   680A      6.335725  
     681A      6.366163   682A      6.401360   683A      6.421864  
     684A      6.453703   685A      6.520474   686A      6.559839  
     687A      6.600760   688A      6.616698   689A      6.703795  
     690A      6.711027   691A      6.767770   692A      6.840630  
     693A      6.891284   694A      6.892735   695A      6.979450  
     696A      7.001257   697A      7.082927   698A      7.142618  
     699A      7.261607   700A      7.350973   701A      7.502350  
     702A      7.833981   703A     16.062880   704A     16.186531  
     705A     16.917869   706A     17.526943   707A     18.637316  
     708A     18.935051   709A     19.291459   710A     19.582552  
     711A     19.828867   712A     20.132967   713A     21.325273  

    Final Occupation by Irrep:
              A 
    DOCC [    38 ]

  @DF-RHF Final Energy:  -438.50270081620920

   => Energetics <=

    Nuclear Repulsion Energy =            537.3749749295271840
    One-Electron Energy =               -1658.3753155931744914
    Two-Electron Energy =                 682.4976398474382222
    Total Energy =                       -438.5027008162091988

Computation Completed

*** tstop() called on node37.bme.utexas.edu at Thu Feb  4 20:13:00 2021
Module time:
	user time   =     441.13 seconds =       7.35 minutes
	system time =     103.98 seconds =       1.73 minutes
	total time  =        140 seconds =       2.33 minutes
Total time:
	user time   =     441.13 seconds =       7.35 minutes
	system time =     103.98 seconds =       1.73 minutes
	total time  =        140 seconds =       2.33 minutes
   => Loading Basis Set <=

    Name: (AUG-CC-PVTZ AUX)
    Role: RIFIT
    Keyword: DF_BASIS_MP2
    atoms 1     entry N          line   206 file /home/xy3866/psi4conda/share/psi4/basis/aug-cc-pvtz-ri.gbs 
    atoms 2-11  entry C          line   148 file /home/xy3866/psi4conda/share/psi4/basis/aug-cc-pvtz-ri.gbs 
    atoms 12-20 entry H          line    30 file /home/xy3866/psi4conda/share/psi4/basis/aug-cc-pvtz-ri.gbs 


*** tstart() called on node37.bme.utexas.edu
*** at Thu Feb  4 20:13:00 2021


  //>>>>>>>>>>>>>>>>>>>>>>>>>>>>>>>>>>>//
  //               DFMP2               //
  //<<<<<<<<<<<<<<<<<<<<<<<<<<<<<<<<<<<//

	 --------------------------------------------------------
	                          DF-MP2                         
	      2nd-Order Density-Fitted Moller-Plesset Theory     
	              RMP2 Wavefunction,   8 Threads             
	                                                         
	        Rob Parrish, Justin Turney, Andy Simmonett,      
	           Ed Hohenstein, and C. David Sherrill          
	 --------------------------------------------------------

   => Auxiliary Basis Set <=

  Basis Set: (AUG-CC-PVTZ AUX)
    Blend: AUG-CC-PVTZ-RI
    Number of shells: 434
    Number of basis function: 1580
    Number of Cartesian functions: 1991
    Spherical Harmonics?: true
    Max angular momentum: 4

	 --------------------------------------------------------
	                 NBF =   713, NAUX =  1580
	 --------------------------------------------------------
	   CLASS    FOCC     OCC    AOCC    AVIR     VIR    FVIR
	   PAIRS       0      38      38     675     675       0
	 --------------------------------------------------------

  DFHelper Memory: AOs need 5.614 GiB; user supplied 22.352 GiB. Using in-core AOs.


         ------------------------------------------------------------
                                     CPHF                           
                                  Rob Parrish                       
         ------------------------------------------------------------

  ==> Geometry <==

    Molecular point group: c1
    Full point group: C1

    Geometry (in Angstrom), charge = 0, multiplicity = 1:

       Center              X                  Y                   Z               Mass       
    ------------   -----------------  -----------------  -----------------  -----------------
         N            1.772421169911    -0.970669928739    -0.386458077404    14.003074004430
         C            1.003127169911     0.096162071261     0.027038922596    12.000000000000
         C           -0.455661830089     0.043191071261     0.018226922596    12.000000000000
         C            1.889016169911     1.090460071261     0.432847922596    12.000000000000
         C           -1.201048830089     1.198646071261    -0.270163077404    12.000000000000
         C           -1.141201830089    -1.152452928739     0.294062922596    12.000000000000
         C            3.106911169911    -0.673424928739    -0.277319077404    12.000000000000
         C            3.204464169911     0.607103071261     0.240978922596    12.000000000000
         C           -2.594389830089     1.160815071261    -0.269121077404    12.000000000000
         C           -2.535261830089    -1.192336928739     0.269483922596    12.000000000000
         C           -3.267495830089    -0.036234928739    -0.009638077404    12.000000000000
         H            1.394563169911    -1.797468928739    -0.831919077404     1.007825032230
         H            1.602725169911     2.042148071261     0.862851922596     1.007825032230
         H           -0.676171830089     2.121570071261    -0.507161077404     1.007825032230
         H           -0.579505830089    -2.044503928739     0.566708922596     1.007825032230
         H            3.866740169911    -1.381738928739    -0.577750077404     1.007825032230
         H            4.041474169911     1.077296771261     0.448674022596     1.007825032230
         H           -3.157697830089     2.064017071261    -0.492696077404     1.007825032230
         H           -3.051556830089    -2.124781928739     0.486687922596     1.007825032230
         H           -4.354269830089    -0.066447928739    -0.020068077404     1.007825032230

  Nuclear repulsion =  537.374974929527184
  Reference energy  = -438.502700816209199

  ==> Basis Set <==

  Basis Set: AUG-CC-PVTZ
    Blend: AUG-CC-PVTZ
    Number of shells: 235
    Number of basis function: 713
    Number of Cartesian functions: 830
    Spherical Harmonics?: true
    Max angular momentum: 3

  ==> CGRSolver (by Rob Parrish) <==

   Number of roots    =         1
   Preconditioning    =    JACOBI
   Convergence cutoff =     1E-06
   Maximum iterations =       100

  ==> CPHFRHamiltonian (by Rob Parrish) <== 

  ==> MemDFJK: Density-Fitted J/K Matrices <==

    J tasked:                   Yes
    K tasked:                   Yes
    wK tasked:                   No
    OpenMP threads:               8
    Memory [MiB]:             22888
    Algorithm:                 Disk
    Schwarz Cutoff:           1E-12
    Mask sparsity (%):       7.4174
    Fitting Condition:        1E-10

   => Auxiliary Basis Set <=

  Basis Set: (AUG-CC-PVTZ AUX)
    Blend: AUG-CC-PVTZ-JKFIT
    Number of shells: 456
    Number of basis function: 1558
    Number of Cartesian functions: 1936
    Spherical Harmonics?: true
    Max angular momentum: 4

  ==> CPHF Iterations <==

  => Iterations <=

             Iter  Converged  Remaining    Residual
  CGR           1          0          1   8.190E-02
  CGR           2          0          1   2.666E-02
  CGR           3          0          1   1.513E-02
  CGR           4          0          1   5.952E-03
  CGR           5          0          1   1.313E-03
  CGR           6          0          1   4.095E-04
  CGR           7          0          1   1.848E-04
  CGR           8          0          1   9.004E-05
  CGR           9          0          1   4.549E-05
  CGR          10          0          1   1.517E-05
  CGR          11          0          1   4.790E-06
  CGR          12          0          1   1.633E-06
  CGR          13          1          0   7.148E-07

    CGRSolver converged.

	-----------------------------------------------------------
	 ==================> DF-MP2 Energies <==================== 
	-----------------------------------------------------------
	 Reference Energy          =    -438.5027008162091988 [Eh]
	 Singles Energy            =      -0.0000000000000000 [Eh]
	 Same-Spin Energy          =      -0.4951472412285560 [Eh]
	 Opposite-Spin Energy      =      -1.5248896200456175 [Eh]
	 Correlation Energy        =      -2.0200368612741735 [Eh]
	 Total Energy              =    -440.5227376774833488 [Eh]
	-----------------------------------------------------------
	 ================> DF-SCS-MP2 Energies <================== 
	-----------------------------------------------------------
	 SCS Same-Spin Scale       =       0.3333333333333333 [-]
	 SCS Opposite-Spin Scale   =       1.2000000000000000 [-]
	 SCS Same-Spin Energy      =      -0.1650490804095187 [Eh]
	 SCS Opposite-Spin Energy  =      -1.8298675440547409 [Eh]
	 SCS Correlation Energy    =      -1.9949166244642595 [Eh]
	 SCS Total Energy          =    -440.4976174406734799 [Eh]
	-----------------------------------------------------------



Properties will be evaluated at   0.000000,  -0.000000,  -0.000000 [a0]

Properties computed using the MP2 density matrix

  Nuclear Dipole Moment: [e a0]
     X:    -0.8617      Y:    -0.1002      Z:    -0.0595

  Electronic Dipole Moment: [e a0]
     X:     0.6936      Y:    -0.4180      Z:    -0.1950

  Dipole Moment: [e a0]
     X:    -0.1682      Y:    -0.5182      Z:    -0.2545     Total:     0.6013

  Dipole Moment: [D]
     X:    -0.4274      Y:    -1.3171      Z:    -0.6468     Total:     1.5284


*** tstop() called on node37.bme.utexas.edu at Thu Feb  4 20:17:53 2021
Module time:
	user time   =    1397.12 seconds =      23.29 minutes
	system time =     207.02 seconds =       3.45 minutes
	total time  =        293 seconds =       4.88 minutes
Total time:
	user time   =    1838.44 seconds =      30.64 minutes
	system time =     311.00 seconds =       5.18 minutes
	total time  =        433 seconds =       7.22 minutes

    Psi4 stopped on: Thursday, 04 February 2021 08:17PM
    Psi4 wall time for execution: 0:07:13.83

*** Psi4 exiting successfully. Buy a developer a beer!
