
    -----------------------------------------------------------------------
          Psi4: An Open-Source Ab Initio Electronic Structure Package
                               Psi4 1.3.2 release

                         Git: Rev {HEAD} ecbda83 


    R. M. Parrish, L. A. Burns, D. G. A. Smith, A. C. Simmonett,
    A. E. DePrince III, E. G. Hohenstein, U. Bozkaya, A. Yu. Sokolov,
    R. Di Remigio, R. M. Richard, J. F. Gonthier, A. M. James,
    H. R. McAlexander, A. Kumar, M. Saitow, X. Wang, B. P. Pritchard,
    P. Verma, H. F. Schaefer III, K. Patkowski, R. A. King, E. F. Valeev,
    F. A. Evangelista, J. M. Turney, T. D. Crawford, and C. D. Sherrill,
    J. Chem. Theory Comput. 13(7) pp 3185--3197 (2017).
    (doi: 10.1021/acs.jctc.7b00174)


                         Additional Contributions by
    P. Kraus, H. Kruse, M. H. Lechner, M. C. Schieber, R. A. Shaw,
    A. Alenaizan, R. Galvelis, Z. L. Glick, S. Lehtola, and J. P. Misiewicz

    -----------------------------------------------------------------------


    Psi4 started on: Thursday, 04 February 2021 04:53PM

    Process ID: 47313
    Host:       node37.bme.utexas.edu
    PSIDATADIR: /home/xy3866/psi4conda/share/psi4
    Memory:     500.0 MiB
    Threads:    8
    
  ==> Input File <==

--------------------------------------------------------------------------
#psi4
#
memory 32 gb

molecule  {
0 1
  N        1.7773000    -0.9706020    -0.3863220
  C        1.0080060     0.0962300     0.0271750
  C       -0.4507830     0.0432590     0.0183630
  C        1.8938950     1.0905280     0.4329840
  C       -1.1541607     1.2234566    -0.2753038
  C       -1.1363230    -1.1523850     0.2941990
  C        3.1117900    -0.6733570    -0.2771830
  C        3.2093430     0.6071710     0.2411150
  C       -2.5895110     1.1608830    -0.2689850
  C       -2.5303830    -1.1922690     0.2696200
  C       -3.2626170    -0.0361670    -0.0095020
  H        1.3994420    -1.7974010    -0.8317830
  H        1.6076040     2.0422160     0.8629880
  H       -0.6712930     2.1216380    -0.5070250
  H       -0.5746270    -2.0444360     0.5668450
  H        3.8716190    -1.3816710    -0.5776140
  H        4.1315670     1.1252340     0.4699550
  H       -3.1528190     2.0640850    -0.4925600
  H       -3.0466780    -2.1247140     0.4868240
  H       -4.3493910    -0.0663800    -0.0199320
units angstrom
no_reorient  #important for SAPT in psi4, default
symmetry c1  #important for SAPT in psi4, default
}

set PROPERTIES_ORIGIN ["COM"]
properties('MP2/aug-cc-pvtz', properties = ['dipole'])
--------------------------------------------------------------------------

  Memory set to  29.802 GiB by Python driver.
    SCF Algorithm Type (re)set to DF.

*** tstart() called on node37.bme.utexas.edu
*** at Thu Feb  4 16:53:46 2021

   => Loading Basis Set <=

    Name: AUG-CC-PVTZ
    Role: ORBITAL
    Keyword: BASIS
    atoms 1     entry N          line   281 file /home/xy3866/psi4conda/share/psi4/basis/aug-cc-pvtz.gbs 
    atoms 2-11  entry C          line   235 file /home/xy3866/psi4conda/share/psi4/basis/aug-cc-pvtz.gbs 
    atoms 12-20 entry H          line    36 file /home/xy3866/psi4conda/share/psi4/basis/aug-cc-pvtz.gbs 


         ---------------------------------------------------------
                                   SCF
               by Justin Turney, Rob Parrish, Andy Simmonett
                          and Daniel G. A. Smith
                              RHF Reference
                        8 Threads,  30517 MiB Core
         ---------------------------------------------------------

  ==> Geometry <==

    Molecular point group: c1
    Full point group: C1

    Geometry (in Angstrom), charge = 0, multiplicity = 1:

       Center              X                  Y                   Z               Mass       
    ------------   -----------------  -----------------  -----------------  -----------------
         N            1.768297468421    -0.973082360675    -0.386164443428    14.003074004430
         C            0.999003468421     0.093749639325     0.027332556572    12.000000000000
         C           -0.459785531579     0.040778639325     0.018520556572    12.000000000000
         C            1.884892468421     1.088047639325     0.433141556572    12.000000000000
         C           -1.163163231579     1.220976239325    -0.275146243428    12.000000000000
         C           -1.145325531579    -1.154865360675     0.294356556572    12.000000000000
         C            3.102787468421    -0.675837360675    -0.277025443428    12.000000000000
         C            3.200340468421     0.604690639325     0.241272556572    12.000000000000
         C           -2.598513531579     1.158402639325    -0.268827443428    12.000000000000
         C           -2.539385531579    -1.194749360675     0.269777556572    12.000000000000
         C           -3.271619531579    -0.038647360675    -0.009344443428    12.000000000000
         H            1.390439468421    -1.799881360675    -0.831625443428     1.007825032230
         H            1.598601468421     2.039735639325     0.863145556572     1.007825032230
         H           -0.680295531579     2.119157639325    -0.506867443428     1.007825032230
         H           -0.583629531579    -2.046916360675     0.567002556572     1.007825032230
         H            3.862616468421    -1.384151360675    -0.577456443428     1.007825032230
         H            4.122564468421     1.122753639325     0.470112556572     1.007825032230
         H           -3.161821531579     2.061604639325    -0.492402443428     1.007825032230
         H           -3.055680531579    -2.127194360675     0.486981556572     1.007825032230
         H           -4.358393531579    -0.068860360675    -0.019774443428     1.007825032230

  Running in c1 symmetry.

  Rotational constants: A =      0.11578  B =      0.02257  C =      0.01944 [cm^-1]
  Rotational constants: A =   3471.12147  B =    676.49410  C =    582.78152 [MHz]
  Nuclear repulsion =  536.424576593196207

  Charge       = 0
  Multiplicity = 1
  Electrons    = 76
  Nalpha       = 38
  Nbeta        = 38

  ==> Algorithm <==

  SCF Algorithm Type is DF.
  DIIS enabled.
  MOM disabled.
  Fractional occupation disabled.
  Guess Type is SAD.
  Energy threshold   = 1.00e-10
  Density threshold  = 1.00e-10
  Integral threshold = 0.00e+00

  ==> Primary Basis <==

  Basis Set: AUG-CC-PVTZ
    Blend: AUG-CC-PVTZ
    Number of shells: 235
    Number of basis function: 713
    Number of Cartesian functions: 830
    Spherical Harmonics?: true
    Max angular momentum: 3

   => Loading Basis Set <=

    Name: (AUG-CC-PVTZ AUX)
    Role: JKFIT
    Keyword: DF_BASIS_SCF
    atoms 1     entry N          line   224 file /home/xy3866/psi4conda/share/psi4/basis/aug-cc-pvtz-jkfit.gbs 
    atoms 2-11  entry C          line   162 file /home/xy3866/psi4conda/share/psi4/basis/aug-cc-pvtz-jkfit.gbs 
    atoms 12-20 entry H          line    70 file /home/xy3866/psi4conda/share/psi4/basis/aug-cc-pvtz-jkfit.gbs 

  ==> Pre-Iterations <==

   -------------------------------------------------------
    Irrep   Nso     Nmo     Nalpha   Nbeta   Ndocc  Nsocc
   -------------------------------------------------------
     A        713     713       0       0       0       0
   -------------------------------------------------------
    Total     713     713      38      38      38       0
   -------------------------------------------------------

  ==> Integral Setup <==

  DFHelper Memory: AOs need 5.612 GiB; user supplied 22.352 GiB. Using in-core AOs.

  ==> MemDFJK: Density-Fitted J/K Matrices <==

    J tasked:                   Yes
    K tasked:                   Yes
    wK tasked:                   No
    OpenMP threads:               8
    Memory [MiB]:             22888
    Algorithm:                 Disk
    Schwarz Cutoff:           1E-12
    Mask sparsity (%):       7.4529
    Fitting Condition:        1E-10

   => Auxiliary Basis Set <=

  Basis Set: (AUG-CC-PVTZ AUX)
    Blend: AUG-CC-PVTZ-JKFIT
    Number of shells: 456
    Number of basis function: 1558
    Number of Cartesian functions: 1936
    Spherical Harmonics?: true
    Max angular momentum: 4

  Minimum eigenvalue in the overlap matrix is 5.5753032120E-07.
  Using Symmetric Orthogonalization.

  SCF Guess: Superposition of Atomic Densities via on-the-fly atomic UHF.

  ==> Iterations <==

                           Total Energy        Delta E     RMS |[F,P]|

   @DF-RHF iter SAD:  -438.12388727800192   -4.38124e+02   0.00000e+00 
   @DF-RHF iter   1:  -438.20171209708917   -7.78248e-02   9.91386e-04 DIIS
   @DF-RHF iter   2:  -438.44677995611028   -2.45068e-01   4.67905e-04 DIIS
   @DF-RHF iter   3:  -438.50209829785581   -5.53183e-02   8.47321e-05 DIIS
   @DF-RHF iter   4:  -438.50498434248948   -2.88604e-03   2.47289e-05 DIIS
   @DF-RHF iter   5:  -438.50516640917289   -1.82067e-04   8.06271e-06 DIIS
   @DF-RHF iter   6:  -438.50519533399529   -2.89248e-05   2.61836e-06 DIIS
   @DF-RHF iter   7:  -438.50520085029524   -5.51630e-06   1.12902e-06 DIIS
   @DF-RHF iter   8:  -438.50520224792780   -1.39763e-06   5.51249e-07 DIIS
   @DF-RHF iter   9:  -438.50520258069105   -3.32763e-07   1.27318e-07 DIIS
   @DF-RHF iter  10:  -438.50520259527144   -1.45804e-08   5.96949e-08 DIIS
   @DF-RHF iter  11:  -438.50520259732758   -2.05614e-09   1.99699e-08 DIIS
   @DF-RHF iter  12:  -438.50520259780592   -4.78337e-10   1.22183e-08 DIIS
   @DF-RHF iter  13:  -438.50520259792631   -1.20394e-10   4.91584e-09 DIIS
   @DF-RHF iter  14:  -438.50520259796349   -3.71756e-11   2.07352e-09 DIIS
   @DF-RHF iter  15:  -438.50520259797042   -6.93490e-12   1.04708e-09 DIIS
   @DF-RHF iter  16:  -438.50520259797003    3.97904e-13   3.00983e-10 DIIS
   @DF-RHF iter  17:  -438.50520259796878    1.25056e-12   1.30434e-10 DIIS
   @DF-RHF iter  18:  -438.50520259796997   -1.19371e-12   7.02284e-11 DIIS
  Energy and wave function converged.


  ==> Post-Iterations <==

    Orbital Energies [Eh]
    ---------------------

    Doubly Occupied:                                                      

       1A    -15.607624     2A    -11.261093     3A    -11.255974  
       4A    -11.253922     5A    -11.245584     6A    -11.243220  
       7A    -11.240976     8A    -11.239208     9A    -11.238087  
      10A    -11.213455    11A    -11.212290    12A     -1.293637  
      13A     -1.152946    14A     -1.049678    15A     -1.042291  
      16A     -1.013234    17A     -0.958704    18A     -0.837434  
      19A     -0.834541    20A     -0.787927    21A     -0.764672  
      22A     -0.734298    23A     -0.682279    24A     -0.636878  
      25A     -0.628288    26A     -0.594495    27A     -0.588734  
      28A     -0.583237    29A     -0.568136    30A     -0.549077  
      31A     -0.536780    32A     -0.503377    33A     -0.499805  
      34A     -0.496148    35A     -0.364277    36A     -0.349903  
      37A     -0.337114    38A     -0.273440  

    Virtual:                                                              

      39A      0.025679    40A      0.030417    41A      0.033605  
      42A      0.040648    43A      0.042313    44A      0.050516  
      45A      0.054915    46A      0.057268    47A      0.064366  
      48A      0.084067    49A      0.090784    50A      0.094963  
      51A      0.095767    52A      0.100068    53A      0.101503  
      54A      0.109106    55A      0.113668    56A      0.116863  
      57A      0.117842    58A      0.122632    59A      0.123970  
      60A      0.124909    61A      0.129851    62A      0.132833  
      63A      0.133889    64A      0.138402    65A      0.140733  
      66A      0.144117    67A      0.146258    68A      0.151052  
      69A      0.154498    70A      0.162509    71A      0.165602  
      72A      0.168420    73A      0.174369    74A      0.178999  
      75A      0.186219    76A      0.188902    77A      0.195154  
      78A      0.203702    79A      0.206240    80A      0.223195  
      81A      0.224499    82A      0.228590    83A      0.234781  
      84A      0.237566    85A      0.242486    86A      0.248112  
      87A      0.255813    88A      0.256731    89A      0.262343  
      90A      0.265444    91A      0.272724    92A      0.274529  
      93A      0.281243    94A      0.290812    95A      0.295631  
      96A      0.298820    97A      0.302568    98A      0.305716  
      99A      0.309060   100A      0.312093   101A      0.317133  
     102A      0.321641   103A      0.322546   104A      0.326620  
     105A      0.330233   106A      0.335597   107A      0.338856  
     108A      0.341741   109A      0.345148   110A      0.347117  
     111A      0.353496   112A      0.360718   113A      0.367537  
     114A      0.369638   115A      0.376635   116A      0.385887  
     117A      0.389207   118A      0.403312   119A      0.409042  
     120A      0.415587   121A      0.419467   122A      0.424018  
     123A      0.431000   124A      0.433600   125A      0.436735  
     126A      0.438712   127A      0.443412   128A      0.449403  
     129A      0.453357   130A      0.460519   131A      0.464177  
     132A      0.467193   133A      0.469620   134A      0.472677  
     135A      0.475034   136A      0.480306   137A      0.481286  
     138A      0.487921   139A      0.490885   140A      0.496646  
     141A      0.498533   142A      0.502556   143A      0.506510  
     144A      0.508495   145A      0.511554   146A      0.520578  
     147A      0.521601   148A      0.523832   149A      0.525823  
     150A      0.528500   151A      0.531590   152A      0.534495  
     153A      0.539119   154A      0.539921   155A      0.545373  
     156A      0.547826   157A      0.556154   158A      0.558110  
     159A      0.563247   160A      0.570697   161A      0.577753  
     162A      0.582287   163A      0.588174   164A      0.598039  
     165A      0.607350   166A      0.611680   167A      0.622180  
     168A      0.627733   169A      0.633636   170A      0.638148  
     171A      0.639852   172A      0.646311   173A      0.664257  
     174A      0.672610   175A      0.675449   176A      0.679084  
     177A      0.681842   178A      0.694533   179A      0.696060  
     180A      0.704096   181A      0.708339   182A      0.714191  
     183A      0.719797   184A      0.726018   185A      0.728541  
     186A      0.737457   187A      0.747102   188A      0.748899  
     189A      0.751404   190A      0.768222   191A      0.771404  
     192A      0.777776   193A      0.778863   194A      0.796034  
     195A      0.800409   196A      0.803232   197A      0.807328  
     198A      0.819223   199A      0.825738   200A      0.832885  
     201A      0.835259   202A      0.845692   203A      0.848740  
     204A      0.853120   205A      0.861392   206A      0.872701  
     207A      0.876133   208A      0.878430   209A      0.886294  
     210A      0.889003   211A      0.891291   212A      0.899038  
     213A      0.905734   214A      0.908252   215A      0.914317  
     216A      0.918242   217A      0.920153   218A      0.929032  
     219A      0.931846   220A      0.936782   221A      0.947049  
     222A      0.949760   223A      0.961746   224A      0.962125  
     225A      0.971500   226A      0.979011   227A      0.980720  
     228A      0.983162   229A      1.005079   230A      1.005575  
     231A      1.010584   232A      1.016888   233A      1.018097  
     234A      1.022438   235A      1.027184   236A      1.035135  
     237A      1.038765   238A      1.042342   239A      1.048093  
     240A      1.052490   241A      1.055243   242A      1.062528  
     243A      1.071050   244A      1.074313   245A      1.077998  
     246A      1.083560   247A      1.090372   248A      1.091167  
     249A      1.093245   250A      1.098832   251A      1.103460  
     252A      1.110229   253A      1.111881   254A      1.118566  
     255A      1.121839   256A      1.126862   257A      1.132628  
     258A      1.144532   259A      1.145430   260A      1.147134  
     261A      1.152056   262A      1.163786   263A      1.175734  
     264A      1.179063   265A      1.182830   266A      1.185128  
     267A      1.189096   268A      1.197381   269A      1.199447  
     270A      1.206857   271A      1.209767   272A      1.213080  
     273A      1.218501   274A      1.225010   275A      1.229840  
     276A      1.237202   277A      1.243313   278A      1.245846  
     279A      1.248022   280A      1.254916   281A      1.263314  
     282A      1.271927   283A      1.275738   284A      1.284488  
     285A      1.290620   286A      1.292021   287A      1.306965  
     288A      1.308498   289A      1.328704   290A      1.333741  
     291A      1.342339   292A      1.352197   293A      1.358257  
     294A      1.365234   295A      1.374862   296A      1.383171  
     297A      1.383735   298A      1.396300   299A      1.401359  
     300A      1.402857   301A      1.413677   302A      1.417164  
     303A      1.427965   304A      1.429299   305A      1.433054  
     306A      1.444745   307A      1.461018   308A      1.463872  
     309A      1.473070   310A      1.484036   311A      1.491758  
     312A      1.500641   313A      1.506481   314A      1.520376  
     315A      1.521824   316A      1.528833   317A      1.530049  
     318A      1.544710   319A      1.549238   320A      1.556019  
     321A      1.563466   322A      1.567860   323A      1.575040  
     324A      1.586872   325A      1.597623   326A      1.609627  
     327A      1.621160   328A      1.634224   329A      1.644325  
     330A      1.662685   331A      1.677886   332A      1.681496  
     333A      1.694218   334A      1.705999   335A      1.708748  
     336A      1.710136   337A      1.724702   338A      1.730463  
     339A      1.732968   340A      1.744365   341A      1.760665  
     342A      1.770879   343A      1.780612   344A      1.787525  
     345A      1.790531   346A      1.800017   347A      1.810279  
     348A      1.820450   349A      1.832225   350A      1.840630  
     351A      1.846117   352A      1.854572   353A      1.861623  
     354A      1.867126   355A      1.881703   356A      1.883759  
     357A      1.888152   358A      1.894685   359A      1.897830  
     360A      1.909490   361A      1.925717   362A      1.935773  
     363A      1.941967   364A      1.964912   365A      1.970393  
     366A      1.972740   367A      1.977080   368A      1.984741  
     369A      1.989571   370A      2.004875   371A      2.014652  
     372A      2.019199   373A      2.030557   374A      2.033928  
     375A      2.045199   376A      2.045809   377A      2.059660  
     378A      2.061391   379A      2.067547   380A      2.070150  
     381A      2.084319   382A      2.086374   383A      2.100880  
     384A      2.109671   385A      2.112683   386A      2.121871  
     387A      2.128969   388A      2.141447   389A      2.144128  
     390A      2.158740   391A      2.170005   392A      2.188552  
     393A      2.204940   394A      2.206188   395A      2.226914  
     396A      2.228346   397A      2.240489   398A      2.264984  
     399A      2.279135   400A      2.280249   401A      2.292704  
     402A      2.301134   403A      2.307939   404A      2.319824  
     405A      2.330372   406A      2.343901   407A      2.347160  
     408A      2.368189   409A      2.371859   410A      2.385052  
     411A      2.393227   412A      2.401009   413A      2.410238  
     414A      2.414828   415A      2.431152   416A      2.437191  
     417A      2.458433   418A      2.467088   419A      2.483162  
     420A      2.488345   421A      2.511342   422A      2.528571  
     423A      2.538335   424A      2.543465   425A      2.562355  
     426A      2.576059   427A      2.586400   428A      2.592901  
     429A      2.626559   430A      2.630818   431A      2.640069  
     432A      2.650353   433A      2.668568   434A      2.702091  
     435A      2.728008   436A      2.734485   437A      2.754838  
     438A      2.775124   439A      2.779678   440A      2.805645  
     441A      2.818276   442A      2.838266   443A      2.852473  
     444A      2.861959   445A      2.872155   446A      2.909186  
     447A      2.969616   448A      3.014663   449A      3.029119  
     450A      3.048798   451A      3.069216   452A      3.077360  
     453A      3.126886   454A      3.147886   455A      3.168988  
     456A      3.184078   457A      3.197701   458A      3.232060  
     459A      3.245934   460A      3.267909   461A      3.276885  
     462A      3.294894   463A      3.301363   464A      3.338906  
     465A      3.350987   466A      3.354103   467A      3.364292  
     468A      3.374695   469A      3.381938   470A      3.393377  
     471A      3.397905   472A      3.411567   473A      3.426403  
     474A      3.432266   475A      3.447587   476A      3.453738  
     477A      3.460227   478A      3.482690   479A      3.487700  
     480A      3.490711   481A      3.503543   482A      3.516460  
     483A      3.532655   484A      3.536674   485A      3.551643  
     486A      3.552906   487A      3.563533   488A      3.572618  
     489A      3.577449   490A      3.580465   491A      3.582785  
     492A      3.599529   493A      3.608121   494A      3.621192  
     495A      3.643296   496A      3.645567   497A      3.659449  
     498A      3.664687   499A      3.692190   500A      3.694546  
     501A      3.703825   502A      3.709059   503A      3.721041  
     504A      3.728920   505A      3.739854   506A      3.749728  
     507A      3.752689   508A      3.755993   509A      3.785739  
     510A      3.792909   511A      3.802363   512A      3.813483  
     513A      3.831717   514A      3.838122   515A      3.859583  
     516A      3.864241   517A      3.871968   518A      3.882647  
     519A      3.888054   520A      3.892253   521A      3.903455  
     522A      3.915117   523A      3.929822   524A      3.936533  
     525A      3.945774   526A      3.958182   527A      3.966531  
     528A      3.982796   529A      3.984039   530A      3.995233  
     531A      3.998092   532A      4.006163   533A      4.015784  
     534A      4.023522   535A      4.034721   536A      4.044383  
     537A      4.053184   538A      4.067397   539A      4.070168  
     540A      4.091869   541A      4.107478   542A      4.111806  
     543A      4.120505   544A      4.127465   545A      4.135237  
     546A      4.150196   547A      4.159262   548A      4.169878  
     549A      4.182062   550A      4.194057   551A      4.196456  
     552A      4.214343   553A      4.224078   554A      4.228878  
     555A      4.238462   556A      4.250559   557A      4.254811  
     558A      4.262881   559A      4.278994   560A      4.291992  
     561A      4.300965   562A      4.313715   563A      4.326083  
     564A      4.337093   565A      4.350827   566A      4.352698  
     567A      4.360877   568A      4.372062   569A      4.379490  
     570A      4.386530   571A      4.393963   572A      4.401744  
     573A      4.431846   574A      4.434144   575A      4.438775  
     576A      4.447145   577A      4.454434   578A      4.464449  
     579A      4.472571   580A      4.474166   581A      4.489063  
     582A      4.501085   583A      4.509941   584A      4.526649  
     585A      4.538168   586A      4.546660   587A      4.555650  
     588A      4.582740   589A      4.591217   590A      4.608121  
     591A      4.632622   592A      4.638862   593A      4.662297  
     594A      4.681138   595A      4.698503   596A      4.705504  
     597A      4.719855   598A      4.738200   599A      4.746666  
     600A      4.750618   601A      4.781130   602A      4.792395  
     603A      4.809253   604A      4.826245   605A      4.838607  
     606A      4.865505   607A      4.871679   608A      4.886139  
     609A      4.900553   610A      4.921043   611A      4.938797  
     612A      4.954822   613A      4.964891   614A      4.970859  
     615A      4.991770   616A      5.003232   617A      5.020548  
     618A      5.030999   619A      5.038472   620A      5.053612  
     621A      5.071641   622A      5.087557   623A      5.092212  
     624A      5.112394   625A      5.119808   626A      5.125873  
     627A      5.142089   628A      5.148750   629A      5.157112  
     630A      5.159458   631A      5.167832   632A      5.174957  
     633A      5.183391   634A      5.186576   635A      5.206796  
     636A      5.226246   637A      5.229543   638A      5.274631  
     639A      5.299600   640A      5.305027   641A      5.326031  
     642A      5.335330   643A      5.347440   644A      5.373717  
     645A      5.380481   646A      5.398074   647A      5.426325  
     648A      5.444033   649A      5.449641   650A      5.468657  
     651A      5.498935   652A      5.524548   653A      5.534354  
     654A      5.544315   655A      5.603693   656A      5.626875  
     657A      5.638423   658A      5.699928   659A      5.709691  
     660A      5.740746   661A      5.765386   662A      5.773167  
     663A      5.783504   664A      5.807637   665A      5.817586  
     666A      5.836188   667A      5.854918   668A      5.870992  
     669A      5.906894   670A      5.954405   671A      5.994912  
     672A      6.082981   673A      6.135286   674A      6.163453  
     675A      6.174538   676A      6.193538   677A      6.241250  
     678A      6.259217   679A      6.295660   680A      6.320908  
     681A      6.347960   682A      6.384824   683A      6.399304  
     684A      6.421822   685A      6.451882   686A      6.514645  
     687A      6.549828   688A      6.599171   689A      6.641978  
     690A      6.710748   691A      6.743771   692A      6.819382  
     693A      6.866688   694A      6.895372   695A      6.964014  
     696A      6.966096   697A      7.089309   698A      7.120995  
     699A      7.222222   700A      7.308455   701A      7.448144  
     702A      7.818312   703A     15.990028   704A     16.178646  
     705A     16.755676   706A     17.261264   707A     18.601826  
     708A     18.730289   709A     18.901631   710A     19.294511  
     711A     19.659540   712A     20.043444   713A     21.315296  

    Final Occupation by Irrep:
              A 
    DOCC [    38 ]

  @DF-RHF Final Energy:  -438.50520259796997

   => Energetics <=

    Nuclear Repulsion Energy =            536.4245765931962069
    One-Electron Energy =               -1656.5140337321690822
    Two-Electron Energy =                 681.5842545410029061
    Total Energy =                       -438.5052025979699692

Computation Completed

*** tstop() called on node37.bme.utexas.edu at Thu Feb  4 16:56:07 2021
Module time:
	user time   =     450.25 seconds =       7.50 minutes
	system time =     112.42 seconds =       1.87 minutes
	total time  =        141 seconds =       2.35 minutes
Total time:
	user time   =     450.25 seconds =       7.50 minutes
	system time =     112.42 seconds =       1.87 minutes
	total time  =        141 seconds =       2.35 minutes
   => Loading Basis Set <=

    Name: (AUG-CC-PVTZ AUX)
    Role: RIFIT
    Keyword: DF_BASIS_MP2
    atoms 1     entry N          line   206 file /home/xy3866/psi4conda/share/psi4/basis/aug-cc-pvtz-ri.gbs 
    atoms 2-11  entry C          line   148 file /home/xy3866/psi4conda/share/psi4/basis/aug-cc-pvtz-ri.gbs 
    atoms 12-20 entry H          line    30 file /home/xy3866/psi4conda/share/psi4/basis/aug-cc-pvtz-ri.gbs 


*** tstart() called on node37.bme.utexas.edu
*** at Thu Feb  4 16:56:08 2021


  //>>>>>>>>>>>>>>>>>>>>>>>>>>>>>>>>>>>//
  //               DFMP2               //
  //<<<<<<<<<<<<<<<<<<<<<<<<<<<<<<<<<<<//

	 --------------------------------------------------------
	                          DF-MP2                         
	      2nd-Order Density-Fitted Moller-Plesset Theory     
	              RMP2 Wavefunction,   8 Threads             
	                                                         
	        Rob Parrish, Justin Turney, Andy Simmonett,      
	           Ed Hohenstein, and C. David Sherrill          
	 --------------------------------------------------------

   => Auxiliary Basis Set <=

  Basis Set: (AUG-CC-PVTZ AUX)
    Blend: AUG-CC-PVTZ-RI
    Number of shells: 434
    Number of basis function: 1580
    Number of Cartesian functions: 1991
    Spherical Harmonics?: true
    Max angular momentum: 4

	 --------------------------------------------------------
	                 NBF =   713, NAUX =  1580
	 --------------------------------------------------------
	   CLASS    FOCC     OCC    AOCC    AVIR     VIR    FVIR
	   PAIRS       0      38      38     675     675       0
	 --------------------------------------------------------

  DFHelper Memory: AOs need 5.612 GiB; user supplied 22.352 GiB. Using in-core AOs.


         ------------------------------------------------------------
                                     CPHF                           
                                  Rob Parrish                       
         ------------------------------------------------------------

  ==> Geometry <==

    Molecular point group: c1
    Full point group: C1

    Geometry (in Angstrom), charge = 0, multiplicity = 1:

       Center              X                  Y                   Z               Mass       
    ------------   -----------------  -----------------  -----------------  -----------------
         N            1.768297468421    -0.973082360675    -0.386164443428    14.003074004430
         C            0.999003468421     0.093749639325     0.027332556572    12.000000000000
         C           -0.459785531579     0.040778639325     0.018520556572    12.000000000000
         C            1.884892468421     1.088047639325     0.433141556572    12.000000000000
         C           -1.163163231579     1.220976239325    -0.275146243428    12.000000000000
         C           -1.145325531579    -1.154865360675     0.294356556572    12.000000000000
         C            3.102787468421    -0.675837360675    -0.277025443428    12.000000000000
         C            3.200340468421     0.604690639325     0.241272556572    12.000000000000
         C           -2.598513531579     1.158402639325    -0.268827443428    12.000000000000
         C           -2.539385531579    -1.194749360675     0.269777556572    12.000000000000
         C           -3.271619531579    -0.038647360675    -0.009344443428    12.000000000000
         H            1.390439468421    -1.799881360675    -0.831625443428     1.007825032230
         H            1.598601468421     2.039735639325     0.863145556572     1.007825032230
         H           -0.680295531579     2.119157639325    -0.506867443428     1.007825032230
         H           -0.583629531579    -2.046916360675     0.567002556572     1.007825032230
         H            3.862616468421    -1.384151360675    -0.577456443428     1.007825032230
         H            4.122564468421     1.122753639325     0.470112556572     1.007825032230
         H           -3.161821531579     2.061604639325    -0.492402443428     1.007825032230
         H           -3.055680531579    -2.127194360675     0.486981556572     1.007825032230
         H           -4.358393531579    -0.068860360675    -0.019774443428     1.007825032230

  Nuclear repulsion =  536.424576593196207
  Reference energy  = -438.505202597969969

  ==> Basis Set <==

  Basis Set: AUG-CC-PVTZ
    Blend: AUG-CC-PVTZ
    Number of shells: 235
    Number of basis function: 713
    Number of Cartesian functions: 830
    Spherical Harmonics?: true
    Max angular momentum: 3

  ==> CGRSolver (by Rob Parrish) <==

   Number of roots    =         1
   Preconditioning    =    JACOBI
   Convergence cutoff =     1E-06
   Maximum iterations =       100

  ==> CPHFRHamiltonian (by Rob Parrish) <== 

  ==> MemDFJK: Density-Fitted J/K Matrices <==

    J tasked:                   Yes
    K tasked:                   Yes
    wK tasked:                   No
    OpenMP threads:               8
    Memory [MiB]:             22888
    Algorithm:                 Disk
    Schwarz Cutoff:           1E-12
    Mask sparsity (%):       7.4529
    Fitting Condition:        1E-10

   => Auxiliary Basis Set <=

  Basis Set: (AUG-CC-PVTZ AUX)
    Blend: AUG-CC-PVTZ-JKFIT
    Number of shells: 456
    Number of basis function: 1558
    Number of Cartesian functions: 1936
    Spherical Harmonics?: true
    Max angular momentum: 4

  ==> CPHF Iterations <==

  => Iterations <=

             Iter  Converged  Remaining    Residual
  CGR           1          0          1   8.236E-02
  CGR           2          0          1   2.701E-02
  CGR           3          0          1   1.510E-02
  CGR           4          0          1   5.965E-03
  CGR           5          0          1   1.337E-03
  CGR           6          0          1   4.296E-04
  CGR           7          0          1   1.848E-04
  CGR           8          0          1   8.560E-05
  CGR           9          0          1   4.139E-05
  CGR          10          0          1   1.294E-05
  CGR          11          0          1   4.791E-06
  CGR          12          0          1   1.347E-06
  CGR          13          1          0   5.228E-07

    CGRSolver converged.

	-----------------------------------------------------------
	 ==================> DF-MP2 Energies <==================== 
	-----------------------------------------------------------
	 Reference Energy          =    -438.5052025979699692 [Eh]
	 Singles Energy            =      -0.0000000000000000 [Eh]
	 Same-Spin Energy          =      -0.4952422469499732 [Eh]
	 Opposite-Spin Energy      =      -1.5256883378101080 [Eh]
	 Correlation Energy        =      -2.0209305847600811 [Eh]
	 Total Energy              =    -440.5261331827300637 [Eh]
	-----------------------------------------------------------
	 ================> DF-SCS-MP2 Energies <================== 
	-----------------------------------------------------------
	 SCS Same-Spin Scale       =       0.3333333333333333 [-]
	 SCS Opposite-Spin Scale   =       1.2000000000000000 [-]
	 SCS Same-Spin Energy      =      -0.1650807489833244 [Eh]
	 SCS Opposite-Spin Energy  =      -1.8308260053721295 [Eh]
	 SCS Correlation Energy    =      -1.9959067543554538 [Eh]
	 SCS Total Energy          =    -440.5011093523254431 [Eh]
	-----------------------------------------------------------



Properties will be evaluated at   0.000000,   0.000000,   0.000000 [a0]

Properties computed using the MP2 density matrix

  Nuclear Dipole Moment: [e a0]
     X:    -0.8166      Y:    -0.0757      Z:    -0.0372

  Electronic Dipole Moment: [e a0]
     X:     0.6252      Y:    -0.4430      Z:    -0.2188

  Dipole Moment: [e a0]
     X:    -0.1914      Y:    -0.5186      Z:    -0.2560     Total:     0.6092

  Dipole Moment: [D]
     X:    -0.4864      Y:    -1.3183      Z:    -0.6506     Total:     1.5485


*** tstop() called on node37.bme.utexas.edu at Thu Feb  4 17:01:07 2021
Module time:
	user time   =    1409.98 seconds =      23.50 minutes
	system time =     232.97 seconds =       3.88 minutes
	total time  =        299 seconds =       4.98 minutes
Total time:
	user time   =    1860.47 seconds =      31.01 minutes
	system time =     345.39 seconds =       5.76 minutes
	total time  =        441 seconds =       7.35 minutes

    Psi4 stopped on: Thursday, 04 February 2021 05:01PM
    Psi4 wall time for execution: 0:07:21.32

*** Psi4 exiting successfully. Buy a developer a beer!
