
    -----------------------------------------------------------------------
          Psi4: An Open-Source Ab Initio Electronic Structure Package
                               Psi4 1.3.2 release

                         Git: Rev {HEAD} ecbda83 


    R. M. Parrish, L. A. Burns, D. G. A. Smith, A. C. Simmonett,
    A. E. DePrince III, E. G. Hohenstein, U. Bozkaya, A. Yu. Sokolov,
    R. Di Remigio, R. M. Richard, J. F. Gonthier, A. M. James,
    H. R. McAlexander, A. Kumar, M. Saitow, X. Wang, B. P. Pritchard,
    P. Verma, H. F. Schaefer III, K. Patkowski, R. A. King, E. F. Valeev,
    F. A. Evangelista, J. M. Turney, T. D. Crawford, and C. D. Sherrill,
    J. Chem. Theory Comput. 13(7) pp 3185--3197 (2017).
    (doi: 10.1021/acs.jctc.7b00174)


                         Additional Contributions by
    P. Kraus, H. Kruse, M. H. Lechner, M. C. Schieber, R. A. Shaw,
    A. Alenaizan, R. Galvelis, Z. L. Glick, S. Lehtola, and J. P. Misiewicz

    -----------------------------------------------------------------------


    Psi4 started on: Thursday, 04 February 2021 02:12PM

    Process ID: 37298
    Host:       node37.bme.utexas.edu
    PSIDATADIR: /home/xy3866/psi4conda/share/psi4
    Memory:     500.0 MiB
    Threads:    8
    
  ==> Input File <==

--------------------------------------------------------------------------
#psi4
#
memory 32 gb

molecule  {
0 1
  N        1.7773000    -0.9706020    -0.3863220
  C        1.0080060     0.0962300     0.0271750
  C       -0.4507830     0.0432590     0.0183630
  C        1.9554439     1.2142830     0.4860705
  C       -1.1961700     1.1987140    -0.2700270
  C       -1.1363230    -1.1523850     0.2941990
  C        3.1117900    -0.6733570    -0.2771830
  C        3.2093430     0.6071710     0.2411150
  C       -2.5895110     1.1608830    -0.2689850
  C       -2.5303830    -1.1922690     0.2696200
  C       -3.2626170    -0.0361670    -0.0095020
  H        1.3994420    -1.7974010    -0.8317830
  H        1.6076040     2.0422160     0.8629880
  H       -0.6712930     2.1216380    -0.5070250
  H       -0.5746270    -2.0444360     0.5668450
  H        3.8716190    -1.3816710    -0.5776140
  H        4.1315670     1.1252340     0.4699550
  H       -3.1528190     2.0640850    -0.4925600
  H       -3.0466780    -2.1247140     0.4868240
  H       -4.3493910    -0.0663800    -0.0199320
units angstrom
no_reorient  #important for SAPT in psi4, default
symmetry c1  #important for SAPT in psi4, default
}

set PROPERTIES_ORIGIN ["COM"]
properties('MP2/aug-cc-pvtz', properties = ['dipole'])
--------------------------------------------------------------------------

  Memory set to  29.802 GiB by Python driver.
    SCF Algorithm Type (re)set to DF.

*** tstart() called on node37.bme.utexas.edu
*** at Thu Feb  4 14:12:47 2021

   => Loading Basis Set <=

    Name: AUG-CC-PVTZ
    Role: ORBITAL
    Keyword: BASIS
    atoms 1     entry N          line   281 file /home/xy3866/psi4conda/share/psi4/basis/aug-cc-pvtz.gbs 
    atoms 2-11  entry C          line   235 file /home/xy3866/psi4conda/share/psi4/basis/aug-cc-pvtz.gbs 
    atoms 12-20 entry H          line    36 file /home/xy3866/psi4conda/share/psi4/basis/aug-cc-pvtz.gbs 


         ---------------------------------------------------------
                                   SCF
               by Justin Turney, Rob Parrish, Andy Simmonett
                          and Daniel G. A. Smith
                              RHF Reference
                        8 Threads,  30517 MiB Core
         ---------------------------------------------------------

  ==> Geometry <==

    Molecular point group: c1
    Full point group: C1

    Geometry (in Angstrom), charge = 0, multiplicity = 1:

       Center              X                  Y                   Z               Mass       
    ------------   -----------------  -----------------  -----------------  -----------------
         N            1.766658624042    -0.981386825204    -0.391059547018    14.003074004430
         C            0.997364624042     0.085445174796     0.022437452982    12.000000000000
         C           -0.461424375958     0.032474174796     0.013625452982    12.000000000000
         C            1.944802524042     1.203498174796     0.481332952982    12.000000000000
         C           -1.206811375958     1.187929174796    -0.274764547018    12.000000000000
         C           -1.146964375958    -1.163169825204     0.289461452982    12.000000000000
         C            3.101148624042    -0.684141825204    -0.281920547018    12.000000000000
         C            3.198701624042     0.596386174796     0.236377452982    12.000000000000
         C           -2.600152375958     1.150098174796    -0.273722547018    12.000000000000
         C           -2.541024375958    -1.203053825204     0.264882452982    12.000000000000
         C           -3.273258375958    -0.046951825204    -0.014239547018    12.000000000000
         H            1.388800624042    -1.808185825204    -0.836520547018     1.007825032230
         H            1.596962624042     2.031431174796     0.858250452982     1.007825032230
         H           -0.681934375958     2.110853174796    -0.511762547018     1.007825032230
         H           -0.585268375958    -2.055220825204     0.562107452982     1.007825032230
         H            3.860977624042    -1.392455825204    -0.582351547018     1.007825032230
         H            4.120925624042     1.114449174796     0.465217452982     1.007825032230
         H           -3.163460375958     2.053300174796    -0.497297547018     1.007825032230
         H           -3.057319375958    -2.135498825204     0.482086452982     1.007825032230
         H           -4.360032375958    -0.077164825204    -0.024669547018     1.007825032230

  Running in c1 symmetry.

  Rotational constants: A =      0.11329  B =      0.02243  C =      0.01929 [cm^-1]
  Rotational constants: A =   3396.21953  B =    672.36803  C =    578.29862 [MHz]
  Nuclear repulsion =  534.093281426760655

  Charge       = 0
  Multiplicity = 1
  Electrons    = 76
  Nalpha       = 38
  Nbeta        = 38

  ==> Algorithm <==

  SCF Algorithm Type is DF.
  DIIS enabled.
  MOM disabled.
  Fractional occupation disabled.
  Guess Type is SAD.
  Energy threshold   = 1.00e-10
  Density threshold  = 1.00e-10
  Integral threshold = 0.00e+00

  ==> Primary Basis <==

  Basis Set: AUG-CC-PVTZ
    Blend: AUG-CC-PVTZ
    Number of shells: 235
    Number of basis function: 713
    Number of Cartesian functions: 830
    Spherical Harmonics?: true
    Max angular momentum: 3

   => Loading Basis Set <=

    Name: (AUG-CC-PVTZ AUX)
    Role: JKFIT
    Keyword: DF_BASIS_SCF
    atoms 1     entry N          line   224 file /home/xy3866/psi4conda/share/psi4/basis/aug-cc-pvtz-jkfit.gbs 
    atoms 2-11  entry C          line   162 file /home/xy3866/psi4conda/share/psi4/basis/aug-cc-pvtz-jkfit.gbs 
    atoms 12-20 entry H          line    70 file /home/xy3866/psi4conda/share/psi4/basis/aug-cc-pvtz-jkfit.gbs 

  ==> Pre-Iterations <==

   -------------------------------------------------------
    Irrep   Nso     Nmo     Nalpha   Nbeta   Ndocc  Nsocc
   -------------------------------------------------------
     A        713     713       0       0       0       0
   -------------------------------------------------------
    Total     713     713      38      38      38       0
   -------------------------------------------------------

  ==> Integral Setup <==

  DFHelper Memory: AOs need 5.608 GiB; user supplied 22.352 GiB. Using in-core AOs.

  ==> MemDFJK: Density-Fitted J/K Matrices <==

    J tasked:                   Yes
    K tasked:                   Yes
    wK tasked:                   No
    OpenMP threads:               8
    Memory [MiB]:             22888
    Algorithm:                 Disk
    Schwarz Cutoff:           1E-12
    Mask sparsity (%):       7.5264
    Fitting Condition:        1E-10

   => Auxiliary Basis Set <=

  Basis Set: (AUG-CC-PVTZ AUX)
    Blend: AUG-CC-PVTZ-JKFIT
    Number of shells: 456
    Number of basis function: 1558
    Number of Cartesian functions: 1936
    Spherical Harmonics?: true
    Max angular momentum: 4

  Minimum eigenvalue in the overlap matrix is 5.3274213112E-07.
  Using Symmetric Orthogonalization.

  SCF Guess: Superposition of Atomic Densities via on-the-fly atomic UHF.

  ==> Iterations <==

                           Total Energy        Delta E     RMS |[F,P]|

   @DF-RHF iter SAD:  -437.98110228496080   -4.37981e+02   0.00000e+00 
   @DF-RHF iter   1:  -438.17686054262725   -1.95758e-01   9.78706e-04 DIIS
   @DF-RHF iter   2:  -438.41913257965206   -2.42272e-01   4.58768e-04 DIIS
   @DF-RHF iter   3:  -438.47237321770984   -5.32406e-02   8.64840e-05 DIIS
   @DF-RHF iter   4:  -438.47526002683617   -2.88681e-03   3.07466e-05 DIIS
   @DF-RHF iter   5:  -438.47552172755354   -2.61701e-04   9.32348e-06 DIIS
   @DF-RHF iter   6:  -438.47555628741088   -3.45599e-05   2.48151e-06 DIIS
   @DF-RHF iter   7:  -438.47556207209738   -5.78469e-06   1.45439e-06 DIIS
   @DF-RHF iter   8:  -438.47556374636429   -1.67427e-06   6.33111e-07 DIIS
   @DF-RHF iter   9:  -438.47556441217870   -6.65814e-07   3.06361e-07 DIIS
   @DF-RHF iter  10:  -438.47556450029043   -8.81117e-08   1.08855e-07 DIIS
   @DF-RHF iter  11:  -438.47556451404461   -1.37542e-08   4.10676e-08 DIIS
   @DF-RHF iter  12:  -438.47556451633221   -2.28761e-09   2.04601e-08 DIIS
   @DF-RHF iter  13:  -438.47556451674438   -4.12172e-10   9.36689e-09 DIIS
   @DF-RHF iter  14:  -438.47556451686586   -1.21474e-10   3.00269e-09 DIIS
   @DF-RHF iter  15:  -438.47556451687592   -1.00613e-11   1.29585e-09 DIIS
   @DF-RHF iter  16:  -438.47556451688013   -4.20641e-12   4.23526e-10 DIIS
   @DF-RHF iter  17:  -438.47556451688024   -1.13687e-13   2.16822e-10 DIIS
   @DF-RHF iter  18:  -438.47556451687979    4.54747e-13   9.93093e-11 DIIS
  Energy and wave function converged.


  ==> Post-Iterations <==

    Orbital Energies [Eh]
    ---------------------

    Doubly Occupied:                                                      

       1A    -15.619404     2A    -11.278742     3A    -11.253890  
       4A    -11.253700     5A    -11.242496     6A    -11.241163  
       7A    -11.240973     8A    -11.238331     9A    -11.238037  
      10A    -11.220868    11A    -11.219523    12A     -1.291262  
      13A     -1.156577    14A     -1.045921    15A     -1.040782  
      16A     -1.017238    17A     -0.951282    18A     -0.842836  
      19A     -0.832337    20A     -0.796481    21A     -0.773347  
      22A     -0.734250    23A     -0.679238    24A     -0.637086  
      25A     -0.628612    26A     -0.602718    27A     -0.589744  
      28A     -0.583740    29A     -0.569299    30A     -0.564926  
      31A     -0.526005    32A     -0.505123    33A     -0.498027  
      34A     -0.483245    35A     -0.360782    36A     -0.352628  
      37A     -0.341907    38A     -0.261171  

    Virtual:                                                              

      39A      0.025335    40A      0.030177    41A      0.033768  
      42A      0.040605    43A      0.042335    44A      0.050411  
      45A      0.054944    46A      0.057193    47A      0.064432  
      48A      0.081776    49A      0.087908    50A      0.094685  
      51A      0.096064    52A      0.100837    53A      0.101618  
      54A      0.108601    55A      0.113200    56A      0.117289  
      57A      0.117992    58A      0.123166    59A      0.123857  
      60A      0.124470    61A      0.129628    62A      0.130718  
      63A      0.134313    64A      0.139046    65A      0.140683  
      66A      0.143819    67A      0.145670    68A      0.151170  
      69A      0.154366    70A      0.162014    71A      0.166648  
      72A      0.168516    73A      0.173959    74A      0.179142  
      75A      0.185937    76A      0.189354    77A      0.194860  
      78A      0.203086    79A      0.204288    80A      0.218720  
      81A      0.221744    82A      0.227665    83A      0.234174  
      84A      0.235507    85A      0.239309    86A      0.246319  
      87A      0.253640    88A      0.254788    89A      0.261866  
      90A      0.264968    91A      0.271347    92A      0.272573  
      93A      0.280562    94A      0.291051    95A      0.294319  
      96A      0.298178    97A      0.300568    98A      0.304534  
      99A      0.308675   100A      0.312112   101A      0.317292  
     102A      0.322044   103A      0.325077   104A      0.326806  
     105A      0.331312   106A      0.333972   107A      0.338509  
     108A      0.340658   109A      0.344215   110A      0.350674  
     111A      0.353102   112A      0.358198   113A      0.367086  
     114A      0.369722   115A      0.375484   116A      0.384222  
     117A      0.390749   118A      0.402039   119A      0.408402  
     120A      0.415945   121A      0.418875   122A      0.424815  
     123A      0.427255   124A      0.432075   125A      0.437842  
     126A      0.439918   127A      0.442401   128A      0.448493  
     129A      0.451878   130A      0.458004   131A      0.463045  
     132A      0.465066   133A      0.467215   134A      0.472503  
     135A      0.478713   136A      0.480429   137A      0.483700  
     138A      0.485627   139A      0.490492   140A      0.492156  
     141A      0.495569   142A      0.500705   143A      0.504692  
     144A      0.509803   145A      0.511913   146A      0.516295  
     147A      0.521099   148A      0.522416   149A      0.523927  
     150A      0.529268   151A      0.530503   152A      0.534561  
     153A      0.537823   154A      0.539752   155A      0.543995  
     156A      0.546871   157A      0.555361   158A      0.558602  
     159A      0.561999   160A      0.571677   161A      0.574477  
     162A      0.578274   163A      0.586879   164A      0.597284  
     165A      0.605478   166A      0.611954   167A      0.623361  
     168A      0.629293   169A      0.631878   170A      0.635853  
     171A      0.638815   172A      0.648895   173A      0.661366  
     174A      0.668238   175A      0.673048   176A      0.675245  
     177A      0.684555   178A      0.687502   179A      0.695309  
     180A      0.705045   181A      0.707402   182A      0.709451  
     183A      0.718729   184A      0.722462   185A      0.725346  
     186A      0.736315   187A      0.746173   188A      0.747797  
     189A      0.753804   190A      0.759232   191A      0.772936  
     192A      0.780973   193A      0.785573   194A      0.790362  
     195A      0.796634   196A      0.802054   197A      0.808735  
     198A      0.816997   199A      0.826033   200A      0.830444  
     201A      0.835316   202A      0.842388   203A      0.849712  
     204A      0.854215   205A      0.864870   206A      0.871714  
     207A      0.875762   208A      0.883278   209A      0.886528  
     210A      0.889365   211A      0.891860   212A      0.895786  
     213A      0.901680   214A      0.906112   215A      0.912658  
     216A      0.914801   217A      0.918680   218A      0.921123  
     219A      0.926182   220A      0.933450   221A      0.942383  
     222A      0.946102   223A      0.955500   224A      0.960169  
     225A      0.970101   226A      0.976371   227A      0.980503  
     228A      0.981970   229A      0.998651   230A      1.007325  
     231A      1.008946   232A      1.012900   233A      1.014218  
     234A      1.019787   235A      1.025914   236A      1.031360  
     237A      1.032204   238A      1.039667   239A      1.044783  
     240A      1.050632   241A      1.054058   242A      1.060880  
     243A      1.064967   244A      1.072462   245A      1.078251  
     246A      1.084129   247A      1.084624   248A      1.088357  
     249A      1.093593   250A      1.099651   251A      1.103849  
     252A      1.107316   253A      1.112395   254A      1.117947  
     255A      1.124703   256A      1.125378   257A      1.132742  
     258A      1.139365   259A      1.144467   260A      1.148396  
     261A      1.151288   262A      1.161657   263A      1.163878  
     264A      1.175015   265A      1.182204   266A      1.184551  
     267A      1.191856   268A      1.196361   269A      1.199970  
     270A      1.204352   271A      1.207576   272A      1.211700  
     273A      1.217092   274A      1.223707   275A      1.229794  
     276A      1.239171   277A      1.241320   278A      1.249230  
     279A      1.254737   280A      1.259900   281A      1.265400  
     282A      1.268152   283A      1.276439   284A      1.283390  
     285A      1.288605   286A      1.296212   287A      1.302988  
     288A      1.307072   289A      1.319880   290A      1.333376  
     291A      1.341371   292A      1.347849   293A      1.351055  
     294A      1.366321   295A      1.368096   296A      1.383240  
     297A      1.389248   298A      1.394971   299A      1.400101  
     300A      1.406912   301A      1.415012   302A      1.421499  
     303A      1.423806   304A      1.429371   305A      1.434314  
     306A      1.439128   307A      1.460506   308A      1.462569  
     309A      1.469805   310A      1.481360   311A      1.492496  
     312A      1.497536   313A      1.506536   314A      1.514422  
     315A      1.515543   316A      1.524521   317A      1.534894  
     318A      1.545319   319A      1.551339   320A      1.556356  
     321A      1.565356   322A      1.568054   323A      1.576018  
     324A      1.585110   325A      1.591561   326A      1.607611  
     327A      1.619574   328A      1.632295   329A      1.642262  
     330A      1.656815   331A      1.672421   332A      1.683431  
     333A      1.690724   334A      1.698353   335A      1.705200  
     336A      1.708780   337A      1.718218   338A      1.728633  
     339A      1.733009   340A      1.750016   341A      1.760534  
     342A      1.769536   343A      1.773809   344A      1.782271  
     345A      1.788796   346A      1.798329   347A      1.800173  
     348A      1.811508   349A      1.829183   350A      1.839850  
     351A      1.846541   352A      1.854298   353A      1.857247  
     354A      1.860698   355A      1.872369   356A      1.880249  
     357A      1.886319   358A      1.889966   359A      1.896516  
     360A      1.912712   361A      1.921640   362A      1.926063  
     363A      1.938689   364A      1.951840   365A      1.961953  
     366A      1.967263   367A      1.970442   368A      1.976311  
     369A      1.983168   370A      1.998578   371A      2.003382  
     372A      2.020541   373A      2.025926   374A      2.040126  
     375A      2.042764   376A      2.048504   377A      2.058143  
     378A      2.059834   379A      2.065693   380A      2.072450  
     381A      2.085936   382A      2.094105   383A      2.101745  
     384A      2.106145   385A      2.115403   386A      2.123853  
     387A      2.132752   388A      2.135528   389A      2.143357  
     390A      2.155457   391A      2.161356   392A      2.180960  
     393A      2.200746   394A      2.212706   395A      2.216894  
     396A      2.222220   397A      2.228647   398A      2.248447  
     399A      2.254093   400A      2.271879   401A      2.283617  
     402A      2.292989   403A      2.310640   404A      2.317892  
     405A      2.322672   406A      2.338786   407A      2.343638  
     408A      2.363526   409A      2.379617   410A      2.386524  
     411A      2.392942   412A      2.398304   413A      2.401624  
     414A      2.422115   415A      2.427039   416A      2.433640  
     417A      2.452748   418A      2.464286   419A      2.483531  
     420A      2.495053   421A      2.498592   422A      2.525316  
     423A      2.527322   424A      2.545047   425A      2.563823  
     426A      2.582325   427A      2.584382   428A      2.590776  
     429A      2.612349   430A      2.625420   431A      2.627901  
     432A      2.640097   433A      2.658073   434A      2.711242  
     435A      2.733241   436A      2.747748   437A      2.763033  
     438A      2.775984   439A      2.792244   440A      2.802263  
     441A      2.807231   442A      2.837214   443A      2.840762  
     444A      2.859392   445A      2.873034   446A      2.897049  
     447A      2.945505   448A      2.983609   449A      3.020212  
     450A      3.037385   451A      3.070235   452A      3.076222  
     453A      3.083279   454A      3.111576   455A      3.172090  
     456A      3.184098   457A      3.191449   458A      3.230209  
     459A      3.233961   460A      3.235536   461A      3.280370  
     462A      3.283335   463A      3.295958   464A      3.319246  
     465A      3.325964   466A      3.346787   467A      3.356174  
     468A      3.369195   469A      3.377446   470A      3.394295  
     471A      3.400137   472A      3.409295   473A      3.425220  
     474A      3.433996   475A      3.437538   476A      3.448050  
     477A      3.458321   478A      3.464256   479A      3.477190  
     480A      3.486462   481A      3.494908   482A      3.515976  
     483A      3.517646   484A      3.536184   485A      3.536620  
     486A      3.548588   487A      3.559378   488A      3.566157  
     489A      3.569457   490A      3.578175   491A      3.583468  
     492A      3.597908   493A      3.610084   494A      3.625265  
     495A      3.627710   496A      3.647670   497A      3.655347  
     498A      3.659983   499A      3.674463   500A      3.688401  
     501A      3.691245   502A      3.705098   503A      3.711476  
     504A      3.716839   505A      3.734402   506A      3.744161  
     507A      3.759169   508A      3.763798   509A      3.779165  
     510A      3.794859   511A      3.801629   512A      3.814693  
     513A      3.828058   514A      3.840126   515A      3.857907  
     516A      3.866640   517A      3.871682   518A      3.883258  
     519A      3.883456   520A      3.890010   521A      3.895348  
     522A      3.909572   523A      3.918868   524A      3.928376  
     525A      3.942259   526A      3.951328   527A      3.959167  
     528A      3.978237   529A      3.979890   530A      3.994995  
     531A      3.996491   532A      4.004520   533A      4.004716  
     534A      4.015679   535A      4.026103   536A      4.037394  
     537A      4.045613   538A      4.054312   539A      4.069998  
     540A      4.086489   541A      4.089696   542A      4.104397  
     543A      4.113851   544A      4.120734   545A      4.145024  
     546A      4.146812   547A      4.158185   548A      4.163336  
     549A      4.173050   550A      4.182964   551A      4.198435  
     552A      4.204337   553A      4.208090   554A      4.218445  
     555A      4.229889   556A      4.237832   557A      4.249954  
     558A      4.259653   559A      4.278488   560A      4.282201  
     561A      4.296111   562A      4.308852   563A      4.310586  
     564A      4.319632   565A      4.337133   566A      4.343946  
     567A      4.361475   568A      4.365236   569A      4.371283  
     570A      4.387415   571A      4.395056   572A      4.400374  
     573A      4.421528   574A      4.427208   575A      4.435425  
     576A      4.446087   577A      4.456569   578A      4.457703  
     579A      4.469495   580A      4.475851   581A      4.483859  
     582A      4.484659   583A      4.497709   584A      4.522753  
     585A      4.535357   586A      4.543076   587A      4.558411  
     588A      4.571122   589A      4.597757   590A      4.604953  
     591A      4.621202   592A      4.633310   593A      4.659993  
     594A      4.674309   595A      4.682531   596A      4.709809  
     597A      4.720009   598A      4.725797   599A      4.742530  
     600A      4.746316   601A      4.781179   602A      4.790466  
     603A      4.800749   604A      4.819848   605A      4.832435  
     606A      4.853382   607A      4.873399   608A      4.887887  
     609A      4.900207   610A      4.913310   611A      4.930877  
     612A      4.941078   613A      4.959625   614A      4.976766  
     615A      4.989008   616A      5.000099   617A      5.002082  
     618A      5.023497   619A      5.037471   620A      5.047736  
     621A      5.054933   622A      5.074619   623A      5.079763  
     624A      5.100982   625A      5.112413   626A      5.125215  
     627A      5.131289   628A      5.147666   629A      5.155122  
     630A      5.160059   631A      5.170153   632A      5.172720  
     633A      5.179413   634A      5.187087   635A      5.221729  
     636A      5.227296   637A      5.236984   638A      5.270201  
     639A      5.302876   640A      5.309152   641A      5.319451  
     642A      5.335250   643A      5.344084   644A      5.370211  
     645A      5.397026   646A      5.403409   647A      5.421777  
     648A      5.426495   649A      5.457702   650A      5.476791  
     651A      5.492332   652A      5.505178   653A      5.543820  
     654A      5.577290   655A      5.594521   656A      5.624111  
     657A      5.648599   658A      5.680878   659A      5.720890  
     660A      5.741632   661A      5.762698   662A      5.781663  
     663A      5.793275   664A      5.818494   665A      5.836875  
     666A      5.849249   667A      5.867607   668A      5.885216  
     669A      5.943862   670A      5.968758   671A      6.005495  
     672A      6.085908   673A      6.135308   674A      6.160096  
     675A      6.170177   676A      6.183106   677A      6.219542  
     678A      6.243616   679A      6.288359   680A      6.314698  
     681A      6.329734   682A      6.367717   683A      6.385210  
     684A      6.423279   685A      6.473476   686A      6.495802  
     687A      6.560526   688A      6.606713   689A      6.671073  
     690A      6.698201   691A      6.741151   692A      6.782445  
     693A      6.871805   694A      6.895634   695A      6.914693  
     696A      6.995283   697A      7.057081   698A      7.135520  
     699A      7.187996   700A      7.327009   701A      7.487881  
     702A      7.801966   703A     16.001692   704A     16.168413  
     705A     16.706317   706A     16.941776   707A     18.171995  
     708A     18.841629   709A     19.002325   710A     19.348124  
     711A     19.712652   712A     20.080370   713A     20.982090  

    Final Occupation by Irrep:
              A 
    DOCC [    38 ]

  @DF-RHF Final Energy:  -438.47556451687979

   => Energetics <=

    Nuclear Repulsion Energy =            534.0932814267606545
    One-Electron Energy =               -1651.7103123889967264
    Two-Electron Energy =                 679.1414664453564001
    Total Energy =                       -438.4755645168797855

Computation Completed

*** tstop() called on node37.bme.utexas.edu at Thu Feb  4 14:14:57 2021
Module time:
	user time   =     434.02 seconds =       7.23 minutes
	system time =      96.79 seconds =       1.61 minutes
	total time  =        130 seconds =       2.17 minutes
Total time:
	user time   =     434.02 seconds =       7.23 minutes
	system time =      96.79 seconds =       1.61 minutes
	total time  =        130 seconds =       2.17 minutes
   => Loading Basis Set <=

    Name: (AUG-CC-PVTZ AUX)
    Role: RIFIT
    Keyword: DF_BASIS_MP2
    atoms 1     entry N          line   206 file /home/xy3866/psi4conda/share/psi4/basis/aug-cc-pvtz-ri.gbs 
    atoms 2-11  entry C          line   148 file /home/xy3866/psi4conda/share/psi4/basis/aug-cc-pvtz-ri.gbs 
    atoms 12-20 entry H          line    30 file /home/xy3866/psi4conda/share/psi4/basis/aug-cc-pvtz-ri.gbs 


*** tstart() called on node37.bme.utexas.edu
*** at Thu Feb  4 14:14:57 2021


  //>>>>>>>>>>>>>>>>>>>>>>>>>>>>>>>>>>>//
  //               DFMP2               //
  //<<<<<<<<<<<<<<<<<<<<<<<<<<<<<<<<<<<//

	 --------------------------------------------------------
	                          DF-MP2                         
	      2nd-Order Density-Fitted Moller-Plesset Theory     
	              RMP2 Wavefunction,   8 Threads             
	                                                         
	        Rob Parrish, Justin Turney, Andy Simmonett,      
	           Ed Hohenstein, and C. David Sherrill          
	 --------------------------------------------------------

   => Auxiliary Basis Set <=

  Basis Set: (AUG-CC-PVTZ AUX)
    Blend: AUG-CC-PVTZ-RI
    Number of shells: 434
    Number of basis function: 1580
    Number of Cartesian functions: 1991
    Spherical Harmonics?: true
    Max angular momentum: 4

	 --------------------------------------------------------
	                 NBF =   713, NAUX =  1580
	 --------------------------------------------------------
	   CLASS    FOCC     OCC    AOCC    AVIR     VIR    FVIR
	   PAIRS       0      38      38     675     675       0
	 --------------------------------------------------------

  DFHelper Memory: AOs need 5.608 GiB; user supplied 22.352 GiB. Using in-core AOs.


         ------------------------------------------------------------
                                     CPHF                           
                                  Rob Parrish                       
         ------------------------------------------------------------

  ==> Geometry <==

    Molecular point group: c1
    Full point group: C1

    Geometry (in Angstrom), charge = 0, multiplicity = 1:

       Center              X                  Y                   Z               Mass       
    ------------   -----------------  -----------------  -----------------  -----------------
         N            1.766658624042    -0.981386825204    -0.391059547018    14.003074004430
         C            0.997364624042     0.085445174796     0.022437452982    12.000000000000
         C           -0.461424375958     0.032474174796     0.013625452982    12.000000000000
         C            1.944802524042     1.203498174796     0.481332952982    12.000000000000
         C           -1.206811375958     1.187929174796    -0.274764547018    12.000000000000
         C           -1.146964375958    -1.163169825204     0.289461452982    12.000000000000
         C            3.101148624042    -0.684141825204    -0.281920547018    12.000000000000
         C            3.198701624042     0.596386174796     0.236377452982    12.000000000000
         C           -2.600152375958     1.150098174796    -0.273722547018    12.000000000000
         C           -2.541024375958    -1.203053825204     0.264882452982    12.000000000000
         C           -3.273258375958    -0.046951825204    -0.014239547018    12.000000000000
         H            1.388800624042    -1.808185825204    -0.836520547018     1.007825032230
         H            1.596962624042     2.031431174796     0.858250452982     1.007825032230
         H           -0.681934375958     2.110853174796    -0.511762547018     1.007825032230
         H           -0.585268375958    -2.055220825204     0.562107452982     1.007825032230
         H            3.860977624042    -1.392455825204    -0.582351547018     1.007825032230
         H            4.120925624042     1.114449174796     0.465217452982     1.007825032230
         H           -3.163460375958     2.053300174796    -0.497297547018     1.007825032230
         H           -3.057319375958    -2.135498825204     0.482086452982     1.007825032230
         H           -4.360032375958    -0.077164825204    -0.024669547018     1.007825032230

  Nuclear repulsion =  534.093281426760655
  Reference energy  = -438.475564516879786

  ==> Basis Set <==

  Basis Set: AUG-CC-PVTZ
    Blend: AUG-CC-PVTZ
    Number of shells: 235
    Number of basis function: 713
    Number of Cartesian functions: 830
    Spherical Harmonics?: true
    Max angular momentum: 3

  ==> CGRSolver (by Rob Parrish) <==

   Number of roots    =         1
   Preconditioning    =    JACOBI
   Convergence cutoff =     1E-06
   Maximum iterations =       100

  ==> CPHFRHamiltonian (by Rob Parrish) <== 

  ==> MemDFJK: Density-Fitted J/K Matrices <==

    J tasked:                   Yes
    K tasked:                   Yes
    wK tasked:                   No
    OpenMP threads:               8
    Memory [MiB]:             22888
    Algorithm:                 Disk
    Schwarz Cutoff:           1E-12
    Mask sparsity (%):       7.5264
    Fitting Condition:        1E-10

   => Auxiliary Basis Set <=

  Basis Set: (AUG-CC-PVTZ AUX)
    Blend: AUG-CC-PVTZ-JKFIT
    Number of shells: 456
    Number of basis function: 1558
    Number of Cartesian functions: 1936
    Spherical Harmonics?: true
    Max angular momentum: 4

  ==> CPHF Iterations <==

  => Iterations <=

             Iter  Converged  Remaining    Residual
  CGR           1          0          1   8.247E-02
  CGR           2          0          1   3.060E-02
  CGR           3          0          1   1.862E-02
  CGR           4          0          1   7.975E-03
  CGR           5          0          1   2.294E-03
  CGR           6          0          1   1.138E-03
  CGR           7          0          1   5.791E-04
  CGR           8          0          1   2.226E-04
  CGR           9          0          1   9.302E-05
  CGR          10          0          1   2.757E-05
  CGR          11          0          1   1.255E-05
  CGR          12          0          1   5.350E-06
  CGR          13          0          1   1.973E-06
  CGR          14          1          0   6.305E-07

    CGRSolver converged.

	-----------------------------------------------------------
	 ==================> DF-MP2 Energies <==================== 
	-----------------------------------------------------------
	 Reference Energy          =    -438.4755645168797855 [Eh]
	 Singles Energy            =      -0.0000000000000000 [Eh]
	 Same-Spin Energy          =      -0.4973691388169678 [Eh]
	 Opposite-Spin Energy      =      -1.5295100150388448 [Eh]
	 Correlation Energy        =      -2.0268791538558126 [Eh]
	 Total Energy              =    -440.5024436707356017 [Eh]
	-----------------------------------------------------------
	 ================> DF-SCS-MP2 Energies <================== 
	-----------------------------------------------------------
	 SCS Same-Spin Scale       =       0.3333333333333333 [-]
	 SCS Opposite-Spin Scale   =       1.2000000000000000 [-]
	 SCS Same-Spin Energy      =      -0.1657897129389893 [Eh]
	 SCS Opposite-Spin Energy  =      -1.8354120180466136 [Eh]
	 SCS Correlation Energy    =      -2.0012017309856027 [Eh]
	 SCS Total Energy          =    -440.4767662478653847 [Eh]
	-----------------------------------------------------------



Properties will be evaluated at   0.000000,   0.000000,   0.000000 [a0]

Properties computed using the MP2 density matrix

  Nuclear Dipole Moment: [e a0]
     X:    -0.8304      Y:    -0.1457      Z:    -0.0785

  Electronic Dipole Moment: [e a0]
     X:     0.6944      Y:    -0.4080      Z:    -0.1880

  Dipole Moment: [e a0]
     X:    -0.1360      Y:    -0.5538      Z:    -0.2664     Total:     0.6294

  Dipole Moment: [D]
     X:    -0.3457      Y:    -1.4075      Z:    -0.6772     Total:     1.5997


*** tstop() called on node37.bme.utexas.edu at Thu Feb  4 14:19:58 2021
Module time:
	user time   =    1412.84 seconds =      23.55 minutes
	system time =     217.62 seconds =       3.63 minutes
	total time  =        301 seconds =       5.02 minutes
Total time:
	user time   =    1847.05 seconds =      30.78 minutes
	system time =     314.41 seconds =       5.24 minutes
	total time  =        431 seconds =       7.18 minutes

    Psi4 stopped on: Thursday, 04 February 2021 02:19PM
    Psi4 wall time for execution: 0:07:11.06

*** Psi4 exiting successfully. Buy a developer a beer!
