6922268                                                                 
Freq      RMP2-FC                                                     6-31G(d)            
Number of atoms                            I               30
Info1-9                                    I   N=           9
          42          40        1002           0           0         100
           6           2           1
Charge                                     I                1
Multiplicity                               I                1
Number of electrons                        I               96
Number of alpha electrons                  I               48
Number of beta electrons                   I               48
Number of basis functions                  I              229
Number of independent functions            I              229
Number of point charges in /Mol/           I                0
Number of translation vectors              I                0
Atomic numbers                             I   N=          30
           7           7           6           6           6           6
           6           6           6           6           6           6
           6           1           1           1           1           1
           1           1           1           1           1           1
           1           1           1           1           1           1
Nuclear charges                            R   N=          30
  7.00000000E+00  7.00000000E+00  6.00000000E+00  6.00000000E+00  6.00000000E+00
  6.00000000E+00  6.00000000E+00  6.00000000E+00  6.00000000E+00  6.00000000E+00
  6.00000000E+00  6.00000000E+00  6.00000000E+00  1.00000000E+00  1.00000000E+00
  1.00000000E+00  1.00000000E+00  1.00000000E+00  1.00000000E+00  1.00000000E+00
  1.00000000E+00  1.00000000E+00  1.00000000E+00  1.00000000E+00  1.00000000E+00
  1.00000000E+00  1.00000000E+00  1.00000000E+00  1.00000000E+00  1.00000000E+00
Current cartesian coordinates              R   N=          90
 -6.46238258E+00 -3.43362479E-01  3.02870763E-01 -1.17434516E+00 -1.48104057E-02
 -2.43326786E-01 -5.17362214E+00 -1.14317059E+00 -2.11968444E+00 -4.96337304E+00
  1.61255438E+00  1.74979239E+00 -2.53185296E+00 -2.05993752E+00 -1.47819290E+00
 -2.31822017E+00  5.93606081E-01  2.18731860E+00  1.52898956E+00 -3.48680670E-01
 -7.50669956E-02  3.05751916E+00  1.79462466E+00 -4.45936003E-01  2.58867894E+00
 -2.70946249E+00  4.72322091E-01  5.67763744E+00  1.48329068E+00 -2.53774573E-01
  1.92691329E+00  4.33729743E+00 -1.03787551E+00  5.20780942E+00 -2.97418120E+00
  6.22179405E-01  6.75330778E+00 -8.67523162E-01  2.70743719E-01 -5.10417184E+00
  5.23664153E-01 -3.33217563E+00 -6.34294383E+00 -2.60779291E+00 -2.98827832E+00
 -5.97943527E+00  1.99981310E+00  3.50596210E+00 -4.91131741E+00  3.30489596E+00
  5.71673761E-01 -2.66959811E+00 -3.79828058E+00 -3.22320620E-01 -1.56115695E+00
 -2.55962707E+00 -3.23300541E+00 -1.20286621E+00  2.06214727E+00  3.11888168E+00
 -2.37707237E+00 -1.05047931E+00  3.48107632E+00 -8.24845572E+00  3.26011718E-01
 -7.59900242E-02 -6.69685234E+00 -1.91214040E+00  1.43158802E+00  1.39098908E+00
 -4.35336115E+00  7.72248304E-01  6.89734913E+00  3.11252580E+00 -5.46941719E-01
  4.20998799E-01  4.16797761E+00 -2.44087691E+00  1.11857421E+00  5.23566605E+00
  6.45640093E-01  3.37486703E+00  5.61195139E+00 -1.77380200E+00  6.03057279E+00
 -4.81064994E+00  1.03180819E+00  8.79488955E+00 -1.05561705E+00  3.86749614E-01
Force Field                                I                0
Int Atom Types                             I   N=          30
           0           0           0           0           0           0
           0           0           0           0           0           0
           0           0           0           0           0           0
           0           0           0           0           0           0
           0           0           0           0           0           0
MM charges                                 R   N=          30
  0.00000000E+00  0.00000000E+00  0.00000000E+00  0.00000000E+00  0.00000000E+00
  0.00000000E+00  0.00000000E+00  0.00000000E+00  0.00000000E+00  0.00000000E+00
  0.00000000E+00  0.00000000E+00  0.00000000E+00  0.00000000E+00  0.00000000E+00
  0.00000000E+00  0.00000000E+00  0.00000000E+00  0.00000000E+00  0.00000000E+00
  0.00000000E+00  0.00000000E+00  0.00000000E+00  0.00000000E+00  0.00000000E+00
  0.00000000E+00  0.00000000E+00  0.00000000E+00  0.00000000E+00  0.00000000E+00
Integer atomic weights                     I   N=          30
          14          14          12          12          12          12
          12          12          12          12          12          12
          12           1           1           1           1           1
           1           1           1           1           1           1
           1           1           1           1           1           1
Real atomic weights                        R   N=          30
  1.40030740E+01  1.40030740E+01  1.20000000E+01  1.20000000E+01  1.20000000E+01
  1.20000000E+01  1.20000000E+01  1.20000000E+01  1.20000000E+01  1.20000000E+01
  1.20000000E+01  1.20000000E+01  1.20000000E+01  1.00782504E+00  1.00782504E+00
  1.00782504E+00  1.00782504E+00  1.00782504E+00  1.00782504E+00  1.00782504E+00
  1.00782504E+00  1.00782504E+00  1.00782504E+00  1.00782504E+00  1.00782504E+00
  1.00782504E+00  1.00782504E+00  1.00782504E+00  1.00782504E+00  1.00782504E+00
Atom fragment info                         I   N=          30
           0           0           0           0           0           0
           0           0           0           0           0           0
           0           0           0           0           0           0
           0           0           0           0           0           0
           0           0           0           0           0           0
Atom residue num                           I   N=          30
           0           0           0           0           0           0
           0           0           0           0           0           0
           0           0           0           0           0           0
           0           0           0           0           0           0
           0           0           0           0           0           0
Nuclear spins                              I   N=          30
           2           2           0           0           0           0
           0           0           0           0           0           0
           0           1           1           1           1           1
           1           1           1           1           1           1
           1           1           1           1           1           1
Nuclear ZEff                               R   N=          30
 -4.55000000E+00 -4.55000000E+00 -3.60000000E+00 -3.60000000E+00 -3.60000000E+00
 -3.60000000E+00 -3.60000000E+00 -3.60000000E+00 -3.60000000E+00 -3.60000000E+00
 -3.60000000E+00 -3.60000000E+00 -3.60000000E+00 -1.00000000E+00 -1.00000000E+00
 -1.00000000E+00 -1.00000000E+00 -1.00000000E+00 -1.00000000E+00 -1.00000000E+00
 -1.00000000E+00 -1.00000000E+00 -1.00000000E+00 -1.00000000E+00 -1.00000000E+00
 -1.00000000E+00 -1.00000000E+00 -1.00000000E+00 -1.00000000E+00 -1.00000000E+00
Nuclear QMom                               R   N=          30
  2.04400000E+00  2.04400000E+00  0.00000000E+00  0.00000000E+00  0.00000000E+00
  0.00000000E+00  0.00000000E+00  0.00000000E+00  0.00000000E+00  0.00000000E+00
  0.00000000E+00  0.00000000E+00  0.00000000E+00  0.00000000E+00  0.00000000E+00
  0.00000000E+00  0.00000000E+00  0.00000000E+00  0.00000000E+00  0.00000000E+00
  0.00000000E+00  0.00000000E+00  0.00000000E+00  0.00000000E+00  0.00000000E+00
  0.00000000E+00  0.00000000E+00  0.00000000E+00  0.00000000E+00  0.00000000E+00
Nuclear GFac                               R   N=          30
  4.03761000E-01  4.03761000E-01  0.00000000E+00  0.00000000E+00  0.00000000E+00
  0.00000000E+00  0.00000000E+00  0.00000000E+00  0.00000000E+00  0.00000000E+00
  0.00000000E+00  0.00000000E+00  0.00000000E+00  2.79284600E+00  2.79284600E+00
  2.79284600E+00  2.79284600E+00  2.79284600E+00  2.79284600E+00  2.79284600E+00
  2.79284600E+00  2.79284600E+00  2.79284600E+00  2.79284600E+00  2.79284600E+00
  2.79284600E+00  2.79284600E+00  2.79284600E+00  2.79284600E+00  2.79284600E+00
MicOpt                                     I   N=          30
          -1          -1          -1          -1          -1          -1
          -1          -1          -1          -1          -1          -1
          -1          -1          -1          -1          -1          -1
          -1          -1          -1          -1          -1          -1
          -1          -1          -1          -1          -1          -1
Number of contracted shells                I               86
Number of primitive shells                 I              211
Pure/Cartesian d shells                    I                1
Pure/Cartesian f shells                    I                0
Highest angular momentum                   I                2
Largest degree of contraction              I                6
Shell types                                I   N=          86
           0          -1          -1           2           0          -1
          -1           2           0          -1          -1           2
           0          -1          -1           2           0          -1
          -1           2           0          -1          -1           2
           0          -1          -1           2           0          -1
          -1           2           0          -1          -1           2
           0          -1          -1           2           0          -1
          -1           2           0          -1          -1           2
           0          -1          -1           2           0           0
           0           0           0           0           0           0
           0           0           0           0           0           0
           0           0           0           0           0           0
           0           0           0           0           0           0
           0           0           0           0           0           0
           0           0
Number of primitives per shell             I   N=          86
           6           3           1           1           6           3
           1           1           6           3           1           1
           6           3           1           1           6           3
           1           1           6           3           1           1
           6           3           1           1           6           3
           1           1           6           3           1           1
           6           3           1           1           6           3
           1           1           6           3           1           1
           6           3           1           1           3           1
           3           1           3           1           3           1
           3           1           3           1           3           1
           3           1           3           1           3           1
           3           1           3           1           3           1
           3           1           3           1           3           1
           3           1
Shell to atom map                          I   N=          86
           1           1           1           1           2           2
           2           2           3           3           3           3
           4           4           4           4           5           5
           5           5           6           6           6           6
           7           7           7           7           8           8
           8           8           9           9           9           9
          10          10          10          10          11          11
          11          11          12          12          12          12
          13          13          13          13          14          14
          15          15          16          16          17          17
          18          18          19          19          20          20
          21          21          22          22          23          23
          24          24          25          25          26          26
          27          27          28          28          29          29
          30          30
Primitive exponents                        R   N=         211
  4.17351146E+03  6.27457911E+02  1.42902093E+02  4.02343293E+01  1.28202129E+01
  4.39043701E+00  1.16263619E+01  2.71627981E+00  7.72218397E-01  2.12031498E-01
  8.00000000E-01  4.17351146E+03  6.27457911E+02  1.42902093E+02  4.02343293E+01
  1.28202129E+01  4.39043701E+00  1.16263619E+01  2.71627981E+00  7.72218397E-01
  2.12031498E-01  8.00000000E-01  3.04752488E+03  4.57369518E+02  1.03948685E+02
  2.92101553E+01  9.28666296E+00  3.16392696E+00  7.86827235E+00  1.88128854E+00
  5.44249258E-01  1.68714478E-01  8.00000000E-01  3.04752488E+03  4.57369518E+02
  1.03948685E+02  2.92101553E+01  9.28666296E+00  3.16392696E+00  7.86827235E+00
  1.88128854E+00  5.44249258E-01  1.68714478E-01  8.00000000E-01  3.04752488E+03
  4.57369518E+02  1.03948685E+02  2.92101553E+01  9.28666296E+00  3.16392696E+00
  7.86827235E+00  1.88128854E+00  5.44249258E-01  1.68714478E-01  8.00000000E-01
  3.04752488E+03  4.57369518E+02  1.03948685E+02  2.92101553E+01  9.28666296E+00
  3.16392696E+00  7.86827235E+00  1.88128854E+00  5.44249258E-01  1.68714478E-01
  8.00000000E-01  3.04752488E+03  4.57369518E+02  1.03948685E+02  2.92101553E+01
  9.28666296E+00  3.16392696E+00  7.86827235E+00  1.88128854E+00  5.44249258E-01
  1.68714478E-01  8.00000000E-01  3.04752488E+03  4.57369518E+02  1.03948685E+02
  2.92101553E+01  9.28666296E+00  3.16392696E+00  7.86827235E+00  1.88128854E+00
  5.44249258E-01  1.68714478E-01  8.00000000E-01  3.04752488E+03  4.57369518E+02
  1.03948685E+02  2.92101553E+01  9.28666296E+00  3.16392696E+00  7.86827235E+00
  1.88128854E+00  5.44249258E-01  1.68714478E-01  8.00000000E-01  3.04752488E+03
  4.57369518E+02  1.03948685E+02  2.92101553E+01  9.28666296E+00  3.16392696E+00
  7.86827235E+00  1.88128854E+00  5.44249258E-01  1.68714478E-01  8.00000000E-01
  3.04752488E+03  4.57369518E+02  1.03948685E+02  2.92101553E+01  9.28666296E+00
  3.16392696E+00  7.86827235E+00  1.88128854E+00  5.44249258E-01  1.68714478E-01
  8.00000000E-01  3.04752488E+03  4.57369518E+02  1.03948685E+02  2.92101553E+01
  9.28666296E+00  3.16392696E+00  7.86827235E+00  1.88128854E+00  5.44249258E-01
  1.68714478E-01  8.00000000E-01  3.04752488E+03  4.57369518E+02  1.03948685E+02
  2.92101553E+01  9.28666296E+00  3.16392696E+00  7.86827235E+00  1.88128854E+00
  5.44249258E-01  1.68714478E-01  8.00000000E-01  1.87311370E+01  2.82539436E+00
  6.40121692E-01  1.61277759E-01  1.87311370E+01  2.82539436E+00  6.40121692E-01
  1.61277759E-01  1.87311370E+01  2.82539436E+00  6.40121692E-01  1.61277759E-01
  1.87311370E+01  2.82539436E+00  6.40121692E-01  1.61277759E-01  1.87311370E+01
  2.82539436E+00  6.40121692E-01  1.61277759E-01  1.87311370E+01  2.82539436E+00
  6.40121692E-01  1.61277759E-01  1.87311370E+01  2.82539436E+00  6.40121692E-01
  1.61277759E-01  1.87311370E+01  2.82539436E+00  6.40121692E-01  1.61277759E-01
  1.87311370E+01  2.82539436E+00  6.40121692E-01  1.61277759E-01  1.87311370E+01
  2.82539436E+00  6.40121692E-01  1.61277759E-01  1.87311370E+01  2.82539436E+00
  6.40121692E-01  1.61277759E-01  1.87311370E+01  2.82539436E+00  6.40121692E-01
  1.61277759E-01  1.87311370E+01  2.82539436E+00  6.40121692E-01  1.61277759E-01
  1.87311370E+01  2.82539436E+00  6.40121692E-01  1.61277759E-01  1.87311370E+01
  2.82539436E+00  6.40121692E-01  1.61277759E-01  1.87311370E+01  2.82539436E+00
  6.40121692E-01  1.61277759E-01  1.87311370E+01  2.82539436E+00  6.40121692E-01
  1.61277759E-01
Contraction coefficients                   R   N=         211
  1.83477216E-03  1.39946270E-02  6.85865518E-02  2.32240873E-01  4.69069948E-01
  3.60455199E-01 -1.14961182E-01 -1.69117479E-01  1.14585195E+00  1.00000000E+00
  1.00000000E+00  1.83477216E-03  1.39946270E-02  6.85865518E-02  2.32240873E-01
  4.69069948E-01  3.60455199E-01 -1.14961182E-01 -1.69117479E-01  1.14585195E+00
  1.00000000E+00  1.00000000E+00  1.83473713E-03  1.40373228E-02  6.88426223E-02
  2.32184443E-01  4.67941348E-01  3.62311985E-01 -1.19332420E-01 -1.60854152E-01
  1.14345644E+00  1.00000000E+00  1.00000000E+00  1.83473713E-03  1.40373228E-02
  6.88426223E-02  2.32184443E-01  4.67941348E-01  3.62311985E-01 -1.19332420E-01
 -1.60854152E-01  1.14345644E+00  1.00000000E+00  1.00000000E+00  1.83473713E-03
  1.40373228E-02  6.88426223E-02  2.32184443E-01  4.67941348E-01  3.62311985E-01
 -1.19332420E-01 -1.60854152E-01  1.14345644E+00  1.00000000E+00  1.00000000E+00
  1.83473713E-03  1.40373228E-02  6.88426223E-02  2.32184443E-01  4.67941348E-01
  3.62311985E-01 -1.19332420E-01 -1.60854152E-01  1.14345644E+00  1.00000000E+00
  1.00000000E+00  1.83473713E-03  1.40373228E-02  6.88426223E-02  2.32184443E-01
  4.67941348E-01  3.62311985E-01 -1.19332420E-01 -1.60854152E-01  1.14345644E+00
  1.00000000E+00  1.00000000E+00  1.83473713E-03  1.40373228E-02  6.88426223E-02
  2.32184443E-01  4.67941348E-01  3.62311985E-01 -1.19332420E-01 -1.60854152E-01
  1.14345644E+00  1.00000000E+00  1.00000000E+00  1.83473713E-03  1.40373228E-02
  6.88426223E-02  2.32184443E-01  4.67941348E-01  3.62311985E-01 -1.19332420E-01
 -1.60854152E-01  1.14345644E+00  1.00000000E+00  1.00000000E+00  1.83473713E-03
  1.40373228E-02  6.88426223E-02  2.32184443E-01  4.67941348E-01  3.62311985E-01
 -1.19332420E-01 -1.60854152E-01  1.14345644E+00  1.00000000E+00  1.00000000E+00
  1.83473713E-03  1.40373228E-02  6.88426223E-02  2.32184443E-01  4.67941348E-01
  3.62311985E-01 -1.19332420E-01 -1.60854152E-01  1.14345644E+00  1.00000000E+00
  1.00000000E+00  1.83473713E-03  1.40373228E-02  6.88426223E-02  2.32184443E-01
  4.67941348E-01  3.62311985E-01 -1.19332420E-01 -1.60854152E-01  1.14345644E+00
  1.00000000E+00  1.00000000E+00  1.83473713E-03  1.40373228E-02  6.88426223E-02
  2.32184443E-01  4.67941348E-01  3.62311985E-01 -1.19332420E-01 -1.60854152E-01
  1.14345644E+00  1.00000000E+00  1.00000000E+00  3.34946043E-02  2.34726953E-01
  8.13757326E-01  1.00000000E+00  3.34946043E-02  2.34726953E-01  8.13757326E-01
  1.00000000E+00  3.34946043E-02  2.34726953E-01  8.13757326E-01  1.00000000E+00
  3.34946043E-02  2.34726953E-01  8.13757326E-01  1.00000000E+00  3.34946043E-02
  2.34726953E-01  8.13757326E-01  1.00000000E+00  3.34946043E-02  2.34726953E-01
  8.13757326E-01  1.00000000E+00  3.34946043E-02  2.34726953E-01  8.13757326E-01
  1.00000000E+00  3.34946043E-02  2.34726953E-01  8.13757326E-01  1.00000000E+00
  3.34946043E-02  2.34726953E-01  8.13757326E-01  1.00000000E+00  3.34946043E-02
  2.34726953E-01  8.13757326E-01  1.00000000E+00  3.34946043E-02  2.34726953E-01
  8.13757326E-01  1.00000000E+00  3.34946043E-02  2.34726953E-01  8.13757326E-01
  1.00000000E+00  3.34946043E-02  2.34726953E-01  8.13757326E-01  1.00000000E+00
  3.34946043E-02  2.34726953E-01  8.13757326E-01  1.00000000E+00  3.34946043E-02
  2.34726953E-01  8.13757326E-01  1.00000000E+00  3.34946043E-02  2.34726953E-01
  8.13757326E-01  1.00000000E+00  3.34946043E-02  2.34726953E-01  8.13757326E-01
  1.00000000E+00
P(S=P) Contraction coefficients            R   N=         211
  0.00000000E+00  0.00000000E+00  0.00000000E+00  0.00000000E+00  0.00000000E+00
  0.00000000E+00  6.75797439E-02  3.23907296E-01  7.40895140E-01  1.00000000E+00
  0.00000000E+00  0.00000000E+00  0.00000000E+00  0.00000000E+00  0.00000000E+00
  0.00000000E+00  0.00000000E+00  6.75797439E-02  3.23907296E-01  7.40895140E-01
  1.00000000E+00  0.00000000E+00  0.00000000E+00  0.00000000E+00  0.00000000E+00
  0.00000000E+00  0.00000000E+00  0.00000000E+00  6.89990666E-02  3.16423961E-01
  7.44308291E-01  1.00000000E+00  0.00000000E+00  0.00000000E+00  0.00000000E+00
  0.00000000E+00  0.00000000E+00  0.00000000E+00  0.00000000E+00  6.89990666E-02
  3.16423961E-01  7.44308291E-01  1.00000000E+00  0.00000000E+00  0.00000000E+00
  0.00000000E+00  0.00000000E+00  0.00000000E+00  0.00000000E+00  0.00000000E+00
  6.89990666E-02  3.16423961E-01  7.44308291E-01  1.00000000E+00  0.00000000E+00
  0.00000000E+00  0.00000000E+00  0.00000000E+00  0.00000000E+00  0.00000000E+00
  0.00000000E+00  6.89990666E-02  3.16423961E-01  7.44308291E-01  1.00000000E+00
  0.00000000E+00  0.00000000E+00  0.00000000E+00  0.00000000E+00  0.00000000E+00
  0.00000000E+00  0.00000000E+00  6.89990666E-02  3.16423961E-01  7.44308291E-01
  1.00000000E+00  0.00000000E+00  0.00000000E+00  0.00000000E+00  0.00000000E+00
  0.00000000E+00  0.00000000E+00  0.00000000E+00  6.89990666E-02  3.16423961E-01
  7.44308291E-01  1.00000000E+00  0.00000000E+00  0.00000000E+00  0.00000000E+00
  0.00000000E+00  0.00000000E+00  0.00000000E+00  0.00000000E+00  6.89990666E-02
  3.16423961E-01  7.44308291E-01  1.00000000E+00  0.00000000E+00  0.00000000E+00
  0.00000000E+00  0.00000000E+00  0.00000000E+00  0.00000000E+00  0.00000000E+00
  6.89990666E-02  3.16423961E-01  7.44308291E-01  1.00000000E+00  0.00000000E+00
  0.00000000E+00  0.00000000E+00  0.00000000E+00  0.00000000E+00  0.00000000E+00
  0.00000000E+00  6.89990666E-02  3.16423961E-01  7.44308291E-01  1.00000000E+00
  0.00000000E+00  0.00000000E+00  0.00000000E+00  0.00000000E+00  0.00000000E+00
  0.00000000E+00  0.00000000E+00  6.89990666E-02  3.16423961E-01  7.44308291E-01
  1.00000000E+00  0.00000000E+00  0.00000000E+00  0.00000000E+00  0.00000000E+00
  0.00000000E+00  0.00000000E+00  0.00000000E+00  6.89990666E-02  3.16423961E-01
  7.44308291E-01  1.00000000E+00  0.00000000E+00  0.00000000E+00  0.00000000E+00
  0.00000000E+00  0.00000000E+00  0.00000000E+00  0.00000000E+00  0.00000000E+00
  0.00000000E+00  0.00000000E+00  0.00000000E+00  0.00000000E+00  0.00000000E+00
  0.00000000E+00  0.00000000E+00  0.00000000E+00  0.00000000E+00  0.00000000E+00
  0.00000000E+00  0.00000000E+00  0.00000000E+00  0.00000000E+00  0.00000000E+00
  0.00000000E+00  0.00000000E+00  0.00000000E+00  0.00000000E+00  0.00000000E+00
  0.00000000E+00  0.00000000E+00  0.00000000E+00  0.00000000E+00  0.00000000E+00
  0.00000000E+00  0.00000000E+00  0.00000000E+00  0.00000000E+00  0.00000000E+00
  0.00000000E+00  0.00000000E+00  0.00000000E+00  0.00000000E+00  0.00000000E+00
  0.00000000E+00  0.00000000E+00  0.00000000E+00  0.00000000E+00  0.00000000E+00
  0.00000000E+00  0.00000000E+00  0.00000000E+00  0.00000000E+00  0.00000000E+00
  0.00000000E+00  0.00000000E+00  0.00000000E+00  0.00000000E+00  0.00000000E+00
  0.00000000E+00  0.00000000E+00  0.00000000E+00  0.00000000E+00  0.00000000E+00
  0.00000000E+00  0.00000000E+00  0.00000000E+00  0.00000000E+00  0.00000000E+00
  0.00000000E+00
Coordinates of each shell                  R   N=         258
 -6.46238258E+00 -3.43362479E-01  3.02870763E-01 -6.46238258E+00 -3.43362479E-01
  3.02870763E-01 -6.46238258E+00 -3.43362479E-01  3.02870763E-01 -6.46238258E+00
 -3.43362479E-01  3.02870763E-01 -1.17434516E+00 -1.48104057E-02 -2.43326786E-01
 -1.17434516E+00 -1.48104057E-02 -2.43326786E-01 -1.17434516E+00 -1.48104057E-02
 -2.43326786E-01 -1.17434516E+00 -1.48104057E-02 -2.43326786E-01 -5.17362214E+00
 -1.14317059E+00 -2.11968444E+00 -5.17362214E+00 -1.14317059E+00 -2.11968444E+00
 -5.17362214E+00 -1.14317059E+00 -2.11968444E+00 -5.17362214E+00 -1.14317059E+00
 -2.11968444E+00 -4.96337304E+00  1.61255438E+00  1.74979239E+00 -4.96337304E+00
  1.61255438E+00  1.74979239E+00 -4.96337304E+00  1.61255438E+00  1.74979239E+00
 -4.96337304E+00  1.61255438E+00  1.74979239E+00 -2.53185296E+00 -2.05993752E+00
 -1.47819290E+00 -2.53185296E+00 -2.05993752E+00 -1.47819290E+00 -2.53185296E+00
 -2.05993752E+00 -1.47819290E+00 -2.53185296E+00 -2.05993752E+00 -1.47819290E+00
 -2.31822017E+00  5.93606081E-01  2.18731860E+00 -2.31822017E+00  5.93606081E-01
  2.18731860E+00 -2.31822017E+00  5.93606081E-01  2.18731860E+00 -2.31822017E+00
  5.93606081E-01  2.18731860E+00  1.52898956E+00 -3.48680670E-01 -7.50669956E-02
  1.52898956E+00 -3.48680670E-01 -7.50669956E-02  1.52898956E+00 -3.48680670E-01
 -7.50669956E-02  1.52898956E+00 -3.48680670E-01 -7.50669956E-02  3.05751916E+00
  1.79462466E+00 -4.45936003E-01  3.05751916E+00  1.79462466E+00 -4.45936003E-01
  3.05751916E+00  1.79462466E+00 -4.45936003E-01  3.05751916E+00  1.79462466E+00
 -4.45936003E-01  2.58867894E+00 -2.70946249E+00  4.72322091E-01  2.58867894E+00
 -2.70946249E+00  4.72322091E-01  2.58867894E+00 -2.70946249E+00  4.72322091E-01
  2.58867894E+00 -2.70946249E+00  4.72322091E-01  5.67763744E+00  1.48329068E+00
 -2.53774573E-01  5.67763744E+00  1.48329068E+00 -2.53774573E-01  5.67763744E+00
  1.48329068E+00 -2.53774573E-01  5.67763744E+00  1.48329068E+00 -2.53774573E-01
  1.92691329E+00  4.33729743E+00 -1.03787551E+00  1.92691329E+00  4.33729743E+00
 -1.03787551E+00  1.92691329E+00  4.33729743E+00 -1.03787551E+00  1.92691329E+00
  4.33729743E+00 -1.03787551E+00  5.20780942E+00 -2.97418120E+00  6.22179405E-01
  5.20780942E+00 -2.97418120E+00  6.22179405E-01  5.20780942E+00 -2.97418120E+00
  6.22179405E-01  5.20780942E+00 -2.97418120E+00  6.22179405E-01  6.75330778E+00
 -8.67523162E-01  2.70743719E-01  6.75330778E+00 -8.67523162E-01  2.70743719E-01
  6.75330778E+00 -8.67523162E-01  2.70743719E-01  6.75330778E+00 -8.67523162E-01
  2.70743719E-01 -5.10417184E+00  5.23664153E-01 -3.33217563E+00 -5.10417184E+00
  5.23664153E-01 -3.33217563E+00 -6.34294383E+00 -2.60779291E+00 -2.98827832E+00
 -6.34294383E+00 -2.60779291E+00 -2.98827832E+00 -5.97943527E+00  1.99981310E+00
  3.50596210E+00 -5.97943527E+00  1.99981310E+00  3.50596210E+00 -4.91131741E+00
  3.30489596E+00  5.71673761E-01 -4.91131741E+00  3.30489596E+00  5.71673761E-01
 -2.66959811E+00 -3.79828058E+00 -3.22320620E-01 -2.66959811E+00 -3.79828058E+00
 -3.22320620E-01 -1.56115695E+00 -2.55962707E+00 -3.23300541E+00 -1.56115695E+00
 -2.55962707E+00 -3.23300541E+00 -1.20286621E+00  2.06214727E+00  3.11888168E+00
 -1.20286621E+00  2.06214727E+00  3.11888168E+00 -2.37707237E+00 -1.05047931E+00
  3.48107632E+00 -2.37707237E+00 -1.05047931E+00  3.48107632E+00 -8.24845572E+00
  3.26011718E-01 -7.59900242E-02 -8.24845572E+00  3.26011718E-01 -7.59900242E-02
 -6.69685234E+00 -1.91214040E+00  1.43158802E+00 -6.69685234E+00 -1.91214040E+00
  1.43158802E+00  1.39098908E+00 -4.35336115E+00  7.72248304E-01  1.39098908E+00
 -4.35336115E+00  7.72248304E-01  6.89734913E+00  3.11252580E+00 -5.46941719E-01
  6.89734913E+00  3.11252580E+00 -5.46941719E-01  4.20998799E-01  4.16797761E+00
 -2.44087691E+00  4.20998799E-01  4.16797761E+00 -2.44087691E+00  1.11857421E+00
  5.23566605E+00  6.45640093E-01  1.11857421E+00  5.23566605E+00  6.45640093E-01
  3.37486703E+00  5.61195139E+00 -1.77380200E+00  3.37486703E+00  5.61195139E+00
 -1.77380200E+00  6.03057279E+00 -4.81064994E+00  1.03180819E+00  6.03057279E+00
 -4.81064994E+00  1.03180819E+00  8.79488955E+00 -1.05561705E+00  3.86749614E-01
  8.79488955E+00 -1.05561705E+00  3.86749614E-01
Constraint Structure                       R   N=          90
 -6.46238258E+00 -3.43362479E-01  3.02870763E-01 -1.17434516E+00 -1.48104057E-02
 -2.43326786E-01 -5.17362214E+00 -1.14317059E+00 -2.11968444E+00 -4.96337304E+00
  1.61255438E+00  1.74979239E+00 -2.53185296E+00 -2.05993752E+00 -1.47819290E+00
 -2.31822017E+00  5.93606081E-01  2.18731860E+00  1.52898956E+00 -3.48680670E-01
 -7.50669956E-02  3.05751916E+00  1.79462466E+00 -4.45936003E-01  2.58867894E+00
 -2.70946249E+00  4.72322091E-01  5.67763744E+00  1.48329068E+00 -2.53774573E-01
  1.92691329E+00  4.33729743E+00 -1.03787551E+00  5.20780942E+00 -2.97418120E+00
  6.22179405E-01  6.75330778E+00 -8.67523162E-01  2.70743719E-01 -5.10417184E+00
  5.23664153E-01 -3.33217563E+00 -6.34294383E+00 -2.60779291E+00 -2.98827832E+00
 -5.97943527E+00  1.99981310E+00  3.50596210E+00 -4.91131741E+00  3.30489596E+00
  5.71673761E-01 -2.66959811E+00 -3.79828058E+00 -3.22320620E-01 -1.56115695E+00
 -2.55962707E+00 -3.23300541E+00 -1.20286621E+00  2.06214727E+00  3.11888168E+00
 -2.37707237E+00 -1.05047931E+00  3.48107632E+00 -8.24845572E+00  3.26011718E-01
 -7.59900242E-02 -6.69685234E+00 -1.91214040E+00  1.43158802E+00  1.39098908E+00
 -4.35336115E+00  7.72248304E-01  6.89734913E+00  3.11252580E+00 -5.46941719E-01
  4.20998799E-01  4.16797761E+00 -2.44087691E+00  1.11857421E+00  5.23566605E+00
  6.45640093E-01  3.37486703E+00  5.61195139E+00 -1.77380200E+00  6.03057279E+00
 -4.81064994E+00  1.03180819E+00  8.79488955E+00 -1.05561705E+00  3.86749614E-01
Num ILSW                                   I              100
ILSW                                       I   N=         100
           0           1           0           0           2           0
           0           0           0           0           0          -1
           0           0           0           0           0           0
           0           0           0           0           1           0
           1           0           0           0           0           0
           0           0      100000           0          -1           0
           0           0           0           0           0           0
           0           0           0           1           1           0
           0           0           1           0           0           0
           0           0           4          40           0           0
           0           0           0           0           0           0
           0           0           0           0           0           0
           0           0           0           0           0           0
           0           0           0           0           0           0
           0           0           0           0           0           0