
    -----------------------------------------------------------------------
          Psi4: An Open-Source Ab Initio Electronic Structure Package
                               Psi4 1.3.2 release

                         Git: Rev {HEAD} ecbda83 


    R. M. Parrish, L. A. Burns, D. G. A. Smith, A. C. Simmonett,
    A. E. DePrince III, E. G. Hohenstein, U. Bozkaya, A. Yu. Sokolov,
    R. Di Remigio, R. M. Richard, J. F. Gonthier, A. M. James,
    H. R. McAlexander, A. Kumar, M. Saitow, X. Wang, B. P. Pritchard,
    P. Verma, H. F. Schaefer III, K. Patkowski, R. A. King, E. F. Valeev,
    F. A. Evangelista, J. M. Turney, T. D. Crawford, and C. D. Sherrill,
    J. Chem. Theory Comput. 13(7) pp 3185--3197 (2017).
    (doi: 10.1021/acs.jctc.7b00174)


                         Additional Contributions by
    P. Kraus, H. Kruse, M. H. Lechner, M. C. Schieber, R. A. Shaw,
    A. Alenaizan, R. Galvelis, Z. L. Glick, S. Lehtola, and J. P. Misiewicz

    -----------------------------------------------------------------------


    Psi4 started on: Wednesday, 04 November 2020 04:45AM

    Process ID: 43656
    Host:       node55.bme.utexas.edu
    PSIDATADIR: /home/xy3866/psi4conda/share/psi4
    Memory:     500.0 MiB
    Threads:    8
    
  ==> Input File <==

--------------------------------------------------------------------------
#psi4
#
memory 32 gb

molecule  {
0 1
  O       -2.7599216    -0.9161072    -0.7442603
  C       -2.7698910    -0.0438090     0.3861860
  C       -1.3369575     0.1783108     0.7525457
  C        3.5873700    -0.2293000     0.2222030
  C       -3.4755630     1.2700040     0.0649850
  C       -0.2802220    -0.2946410     0.1124460
  C        2.1660230    -0.5131760    -0.1475910
  C        1.0922740    -0.0266840     0.5021560
  C        4.3244450     0.5343730    -0.8803810
  H       -3.2865450    -0.5271910     1.2335890
  H       -1.1970340     0.8260370     1.6487790
  H        3.6131550     0.3461180     1.1547940
  H        4.1142490    -1.1721620     0.4188690
  H       -2.9813020     1.7413150    -0.7875330
  H       -4.5277090     1.0956620    -0.1864690
  H       -3.4435650     1.9541860     0.9176610
  H       -0.4470010    -0.9272420    -0.7564190
  H        2.0063450    -1.1440610    -1.0244550
  H        1.2471430     0.6066220     1.3780870
  H        4.3142870    -0.0291260    -1.8177910
  H        5.3679410     0.7151030    -0.6066950
  H        3.8442820     1.4990380    -1.0633910
  H       -3.7175750    -1.0591810    -0.9792530
units angstrom
no_reorient  #important for SAPT in psi4, default
symmetry c1  #important for SAPT in psi4, default
}

set PROPERTIES_ORIGIN ["COM"]
properties('MP2/aug-cc-pvtz', properties = ['dipole'])
--------------------------------------------------------------------------

  Memory set to  29.802 GiB by Python driver.
    SCF Algorithm Type (re)set to DF.

*** tstart() called on node55.bme.utexas.edu
*** at Wed Nov  4 04:45:30 2020

   => Loading Basis Set <=

    Name: AUG-CC-PVTZ
    Role: ORBITAL
    Keyword: BASIS
    atoms 1     entry O          line   327 file /home/xy3866/psi4conda/share/psi4/basis/aug-cc-pvtz.gbs 
    atoms 2-9   entry C          line   235 file /home/xy3866/psi4conda/share/psi4/basis/aug-cc-pvtz.gbs 
    atoms 10-23 entry H          line    36 file /home/xy3866/psi4conda/share/psi4/basis/aug-cc-pvtz.gbs 


         ---------------------------------------------------------
                                   SCF
               by Justin Turney, Rob Parrish, Andy Simmonett
                          and Daniel G. A. Smith
                              RHF Reference
                        8 Threads,  30517 MiB Core
         ---------------------------------------------------------

  ==> Geometry <==

    Molecular point group: c1
    Full point group: C1

    Geometry (in Angstrom), charge = 0, multiplicity = 1:

       Center              X                  Y                   Z               Mass       
    ------------   -----------------  -----------------  -----------------  -----------------
         O           -2.763808040577    -0.914550628063    -0.742454732731    15.994914619570
         C           -2.773777440577    -0.042252428063     0.387991567269    12.000000000000
         C           -1.340843940577     0.179867371937     0.754351267269    12.000000000000
         C            3.583483559423    -0.227743428063     0.224008567269    12.000000000000
         C           -3.479449440577     1.271560571937     0.066790567269    12.000000000000
         C           -0.284108440577    -0.293084428063     0.114251567269    12.000000000000
         C            2.162136559423    -0.511619428063    -0.145785432731    12.000000000000
         C            1.088387559423    -0.025127428063     0.503961567269    12.000000000000
         C            4.320558559423     0.535929571937    -0.878575432731    12.000000000000
         H           -3.290431440577    -0.525634428063     1.235394567269     1.007825032230
         H           -1.200920440577     0.827593571937     1.650584567269     1.007825032230
         H            3.609268559423     0.347674571937     1.156599567269     1.007825032230
         H            4.110362559423    -1.170605428063     0.420674567269     1.007825032230
         H           -2.985188440577     1.742871571937    -0.785727432731     1.007825032230
         H           -4.531595440577     1.097218571937    -0.184663432731     1.007825032230
         H           -3.447451440577     1.955742571937     0.919466567269     1.007825032230
         H           -0.450887440577    -0.925685428063    -0.754613432731     1.007825032230
         H            2.002458559423    -1.142504428063    -1.022649432731     1.007825032230
         H            1.243256559423     0.608178571937     1.379892567269     1.007825032230
         H            4.310400559423    -0.027569428063    -1.815985432731     1.007825032230
         H            5.364054559423     0.716659571937    -0.604889432731     1.007825032230
         H            3.840395559423     1.500594571937    -1.061585432731     1.007825032230
         H           -3.721461440577    -1.057624428063    -0.977447432731     1.007825032230

  Running in c1 symmetry.

  Rotational constants: A =      0.16210  B =      0.01621  C =      0.01587 [cm^-1]
  Rotational constants: A =   4859.61165  B =    485.91590  C =    475.66269 [MHz]
  Nuclear repulsion =  418.690648151442019

  Charge       = 0
  Multiplicity = 1
  Electrons    = 70
  Nalpha       = 35
  Nbeta        = 35

  ==> Algorithm <==

  SCF Algorithm Type is DF.
  DIIS enabled.
  MOM disabled.
  Fractional occupation disabled.
  Guess Type is SAD.
  Energy threshold   = 1.00e-10
  Density threshold  = 1.00e-10
  Integral threshold = 0.00e+00

  ==> Primary Basis <==

  Basis Set: AUG-CC-PVTZ
    Blend: AUG-CC-PVTZ
    Number of shells: 252
    Number of basis function: 736
    Number of Cartesian functions: 845
    Spherical Harmonics?: true
    Max angular momentum: 3

   => Loading Basis Set <=

    Name: (AUG-CC-PVTZ AUX)
    Role: JKFIT
    Keyword: DF_BASIS_SCF
    atoms 1     entry O          line   286 file /home/xy3866/psi4conda/share/psi4/basis/aug-cc-pvtz-jkfit.gbs 
    atoms 2-9   entry C          line   162 file /home/xy3866/psi4conda/share/psi4/basis/aug-cc-pvtz-jkfit.gbs 
    atoms 10-23 entry H          line    70 file /home/xy3866/psi4conda/share/psi4/basis/aug-cc-pvtz-jkfit.gbs 

  ==> Pre-Iterations <==

   -------------------------------------------------------
    Irrep   Nso     Nmo     Nalpha   Nbeta   Ndocc  Nsocc
   -------------------------------------------------------
     A        736     736       0       0       0       0
   -------------------------------------------------------
    Total     736     736      35      35      35       0
   -------------------------------------------------------

  ==> Integral Setup <==

  DFHelper Memory: AOs need 5.637 GiB; user supplied 22.352 GiB. Using in-core AOs.

  ==> MemDFJK: Density-Fitted J/K Matrices <==

    J tasked:                   Yes
    K tasked:                   Yes
    wK tasked:                   No
    OpenMP threads:               8
    Memory [MiB]:             22888
    Algorithm:                 Disk
    Schwarz Cutoff:           1E-12
    Mask sparsity (%):      14.1120
    Fitting Condition:        1E-10

   => Auxiliary Basis Set <=

  Basis Set: (AUG-CC-PVTZ AUX)
    Blend: AUG-CC-PVTZ-JKFIT
    Number of shells: 466
    Number of basis function: 1580
    Number of Cartesian functions: 1949
    Spherical Harmonics?: true
    Max angular momentum: 4

  Minimum eigenvalue in the overlap matrix is 1.4955074110E-06.
  Using Symmetric Orthogonalization.

  SCF Guess: Superposition of Atomic Densities via on-the-fly atomic UHF.

  ==> Iterations <==

                           Total Energy        Delta E     RMS |[F,P]|

   @DF-RHF iter SAD:  -385.00102778078133   -3.85001e+02   0.00000e+00 
   @DF-RHF iter   1:  -385.69393463999018   -6.92907e-01   1.05324e-03 DIIS
   @DF-RHF iter   2:  -385.99461504876490   -3.00680e-01   4.98744e-04 DIIS
   @DF-RHF iter   3:  -386.05485400988744   -6.02390e-02   1.03116e-04 DIIS
   @DF-RHF iter   4:  -386.05914446739132   -4.29046e-03   4.29887e-05 DIIS
   @DF-RHF iter   5:  -386.05967738053459   -5.32913e-04   6.82508e-06 DIIS
   @DF-RHF iter   6:  -386.05970452716645   -2.71466e-05   2.05687e-06 DIIS
   @DF-RHF iter   7:  -386.05970687815613   -2.35099e-06   6.21353e-07 DIIS
   @DF-RHF iter   8:  -386.05970716949508   -2.91339e-07   2.90586e-07 DIIS
   @DF-RHF iter   9:  -386.05970721567576   -4.61807e-08   8.51298e-08 DIIS
   @DF-RHF iter  10:  -386.05970722347695   -7.80119e-09   3.90315e-08 DIIS
   @DF-RHF iter  11:  -386.05970722474757   -1.27062e-09   1.23814e-08 DIIS
   @DF-RHF iter  12:  -386.05970722488746   -1.39892e-10   4.04032e-09 DIIS
   @DF-RHF iter  13:  -386.05970722490440   -1.69393e-11   1.77136e-09 DIIS
   @DF-RHF iter  14:  -386.05970722490798   -3.58114e-12   5.37194e-10 DIIS
   @DF-RHF iter  15:  -386.05970722490724    7.38964e-13   2.05820e-10 DIIS
   @DF-RHF iter  16:  -386.05970722490770   -4.54747e-13   5.69105e-11 DIIS
  Energy and wave function converged.


  ==> Post-Iterations <==

    Orbital Energies [Eh]
    ---------------------

    Doubly Occupied:                                                      

       1A    -20.561295     2A    -11.286382     3A    -11.225706  
       4A    -11.223124     5A    -11.222879     6A    -11.221451  
       7A    -11.221211     8A    -11.218373     9A    -11.212740  
      10A     -1.357206    11A     -1.098568    12A     -1.061251  
      13A     -1.016167    14A     -0.964190    15A     -0.876095  
      16A     -0.829302    17A     -0.752644    18A     -0.741254  
      19A     -0.693915    20A     -0.636529    21A     -0.628737  
      22A     -0.616897    23A     -0.589702    24A     -0.581371  
      25A     -0.546038    26A     -0.543308    27A     -0.526912  
      28A     -0.518271    29A     -0.497121    30A     -0.493814  
      31A     -0.478946    32A     -0.466494    33A     -0.452996  
      34A     -0.420175    35A     -0.300061  

    Virtual:                                                              

      36A      0.026731    37A      0.031753    38A      0.034910  
      39A      0.039072    40A      0.044238    41A      0.046825  
      42A      0.047488    43A      0.059700    44A      0.061329  
      45A      0.065299    46A      0.066713    47A      0.075790  
      48A      0.083604    49A      0.085063    50A      0.100876  
      51A      0.107795    52A      0.110445    53A      0.113722  
      54A      0.115457    55A      0.115741    56A      0.124026  
      57A      0.127684    58A      0.131922    59A      0.132965  
      60A      0.135148    61A      0.141841    62A      0.146104  
      63A      0.148405    64A      0.152017    65A      0.157419  
      66A      0.161234    67A      0.162445    68A      0.168516  
      69A      0.176919    70A      0.178569    71A      0.181995  
      72A      0.187591    73A      0.190502    74A      0.196537  
      75A      0.213288    76A      0.217421    77A      0.224904  
      78A      0.232073    79A      0.235233    80A      0.235637  
      81A      0.243584    82A      0.245753    83A      0.248106  
      84A      0.251261    85A      0.256619    86A      0.266555  
      87A      0.273077    88A      0.278998    89A      0.280941  
      90A      0.286589    91A      0.298543    92A      0.299268  
      93A      0.302544    94A      0.306289    95A      0.310082  
      96A      0.313041    97A      0.315047    98A      0.321002  
      99A      0.325355   100A      0.330773   101A      0.336749  
     102A      0.344930   103A      0.347348   104A      0.351259  
     105A      0.357251   106A      0.362022   107A      0.363164  
     108A      0.373446   109A      0.375150   110A      0.380522  
     111A      0.382042   112A      0.383078   113A      0.386858  
     114A      0.392060   115A      0.394023   116A      0.394529  
     117A      0.398071   118A      0.405963   119A      0.409153  
     120A      0.411224   121A      0.416523   122A      0.423510  
     123A      0.425684   124A      0.431962   125A      0.434922  
     126A      0.436698   127A      0.440618   128A      0.448837  
     129A      0.450605   130A      0.451853   131A      0.460393  
     132A      0.461556   133A      0.467493   134A      0.473452  
     135A      0.475159   136A      0.480955   137A      0.485281  
     138A      0.488660   139A      0.492072   140A      0.493289  
     141A      0.498857   142A      0.499061   143A      0.503646  
     144A      0.506178   145A      0.510934   146A      0.512764  
     147A      0.517639   148A      0.518629   149A      0.527827  
     150A      0.535515   151A      0.537281   152A      0.538676  
     153A      0.543817   154A      0.548021   155A      0.556661  
     156A      0.558243   157A      0.563074   158A      0.566089  
     159A      0.574517   160A      0.576204   161A      0.580720  
     162A      0.581780   163A      0.592898   164A      0.595075  
     165A      0.601612   166A      0.608559   167A      0.609904  
     168A      0.613836   169A      0.627547   170A      0.628423  
     171A      0.631739   172A      0.636138   173A      0.637910  
     174A      0.658102   175A      0.661502   176A      0.668937  
     177A      0.675324   178A      0.688515   179A      0.693016  
     180A      0.697235   181A      0.706419   182A      0.713676  
     183A      0.723966   184A      0.734440   185A      0.741353  
     186A      0.746140   187A      0.755992   188A      0.763968  
     189A      0.768317   190A      0.773020   191A      0.774407  
     192A      0.790578   193A      0.801858   194A      0.812527  
     195A      0.816960   196A      0.818379   197A      0.824456  
     198A      0.826379   199A      0.835093   200A      0.839011  
     201A      0.841841   202A      0.844680   203A      0.852942  
     204A      0.863828   205A      0.865003   206A      0.874513  
     207A      0.878480   208A      0.885509   209A      0.889722  
     210A      0.895633   211A      0.898574   212A      0.903697  
     213A      0.912302   214A      0.916441   215A      0.920531  
     216A      0.924491   217A      0.931779   218A      0.934782  
     219A      0.939322   220A      0.946302   221A      0.948431  
     222A      0.955234   223A      0.961229   224A      0.965743  
     225A      0.967891   226A      0.976983   227A      0.980774  
     228A      0.984444   229A      0.984814   230A      0.997425  
     231A      0.999624   232A      1.005589   233A      1.010629  
     234A      1.018165   235A      1.021981   236A      1.027322  
     237A      1.028632   238A      1.033767   239A      1.036781  
     240A      1.042248   241A      1.046491   242A      1.052303  
     243A      1.056274   244A      1.057708   245A      1.071357  
     246A      1.073441   247A      1.077397   248A      1.084607  
     249A      1.086894   250A      1.089892   251A      1.095539  
     252A      1.102213   253A      1.105948   254A      1.109439  
     255A      1.118723   256A      1.126116   257A      1.132454  
     258A      1.134377   259A      1.138854   260A      1.149205  
     261A      1.158735   262A      1.161935   263A      1.165926  
     264A      1.168454   265A      1.175123   266A      1.181431  
     267A      1.187441   268A      1.192133   269A      1.193870  
     270A      1.203628   271A      1.210179   272A      1.215273  
     273A      1.223367   274A      1.225369   275A      1.227985  
     276A      1.230138   277A      1.236050   278A      1.237983  
     279A      1.248369   280A      1.253851   281A      1.261318  
     282A      1.262757   283A      1.272505   284A      1.278944  
     285A      1.284174   286A      1.287925   287A      1.296514  
     288A      1.298739   289A      1.307083   290A      1.311568  
     291A      1.318544   292A      1.325207   293A      1.333480  
     294A      1.340775   295A      1.353883   296A      1.360065  
     297A      1.362560   298A      1.366503   299A      1.383435  
     300A      1.395035   301A      1.402398   302A      1.406063  
     303A      1.421656   304A      1.432235   305A      1.440130  
     306A      1.443863   307A      1.451152   308A      1.456994  
     309A      1.466817   310A      1.475364   311A      1.483961  
     312A      1.486703   313A      1.500837   314A      1.504541  
     315A      1.507019   316A      1.513560   317A      1.518339  
     318A      1.533573   319A      1.539717   320A      1.548936  
     321A      1.556835   322A      1.568321   323A      1.572830  
     324A      1.578689   325A      1.584113   326A      1.588937  
     327A      1.603225   328A      1.612336   329A      1.616695  
     330A      1.625639   331A      1.644564   332A      1.649188  
     333A      1.652061   334A      1.660954   335A      1.669007  
     336A      1.678349   337A      1.684462   338A      1.686489  
     339A      1.698435   340A      1.704493   341A      1.709609  
     342A      1.712991   343A      1.722967   344A      1.725153  
     345A      1.731321   346A      1.735585   347A      1.751189  
     348A      1.754337   349A      1.761437   350A      1.765583  
     351A      1.774243   352A      1.779747   353A      1.786680  
     354A      1.792677   355A      1.799279   356A      1.809183  
     357A      1.824926   358A      1.828218   359A      1.838473  
     360A      1.842452   361A      1.850584   362A      1.858293  
     363A      1.861027   364A      1.871094   365A      1.874318  
     366A      1.883028   367A      1.887626   368A      1.900268  
     369A      1.906798   370A      1.908307   371A      1.914615  
     372A      1.921644   373A      1.937204   374A      1.941605  
     375A      1.944725   376A      1.954474   377A      1.961424  
     378A      1.968618   379A      1.977850   380A      1.985913  
     381A      1.988233   382A      1.994763   383A      2.001304  
     384A      2.017931   385A      2.025279   386A      2.031028  
     387A      2.040440   388A      2.051363   389A      2.065691  
     390A      2.071602   391A      2.077332   392A      2.084283  
     393A      2.107142   394A      2.115789   395A      2.120047  
     396A      2.122320   397A      2.128308   398A      2.143706  
     399A      2.148171   400A      2.168506   401A      2.174585  
     402A      2.179498   403A      2.193611   404A      2.195713  
     405A      2.207930   406A      2.217554   407A      2.225088  
     408A      2.234751   409A      2.235951   410A      2.252318  
     411A      2.263962   412A      2.265439   413A      2.272948  
     414A      2.280832   415A      2.289904   416A      2.299004  
     417A      2.313142   418A      2.315373   419A      2.323409  
     420A      2.333337   421A      2.350861   422A      2.361122  
     423A      2.366623   424A      2.374091   425A      2.388284  
     426A      2.395061   427A      2.413447   428A      2.423590  
     429A      2.436680   430A      2.447545   431A      2.456664  
     432A      2.483329   433A      2.500134   434A      2.504062  
     435A      2.517544   436A      2.536809   437A      2.559623  
     438A      2.572038   439A      2.600326   440A      2.619989  
     441A      2.628284   442A      2.634940   443A      2.657902  
     444A      2.686141   445A      2.692662   446A      2.704624  
     447A      2.719537   448A      2.720938   449A      2.787184  
     450A      2.813200   451A      2.857698   452A      2.866948  
     453A      2.912466   454A      2.941052   455A      2.953438  
     456A      2.989202   457A      3.006993   458A      3.017383  
     459A      3.067527   460A      3.089550   461A      3.121240  
     462A      3.133573   463A      3.191228   464A      3.206466  
     465A      3.227610   466A      3.233801   467A      3.238073  
     468A      3.264473   469A      3.278284   470A      3.296182  
     471A      3.312007   472A      3.342231   473A      3.351445  
     474A      3.366850   475A      3.387921   476A      3.403046  
     477A      3.416357   478A      3.427034   479A      3.446978  
     480A      3.461871   481A      3.465150   482A      3.477288  
     483A      3.490506   484A      3.496606   485A      3.513587  
     486A      3.520903   487A      3.537565   488A      3.548246  
     489A      3.555906   490A      3.577549   491A      3.589747  
     492A      3.591800   493A      3.608896   494A      3.612159  
     495A      3.617720   496A      3.638563   497A      3.640938  
     498A      3.652972   499A      3.662178   500A      3.674812  
     501A      3.686319   502A      3.691514   503A      3.696006  
     504A      3.706135   505A      3.710970   506A      3.716553  
     507A      3.728463   508A      3.741247   509A      3.751606  
     510A      3.761366   511A      3.771628   512A      3.776385  
     513A      3.783318   514A      3.801219   515A      3.804264  
     516A      3.816039   517A      3.826852   518A      3.835888  
     519A      3.845898   520A      3.852397   521A      3.860378  
     522A      3.874572   523A      3.875782   524A      3.893454  
     525A      3.907302   526A      3.924921   527A      3.926532  
     528A      3.942570   529A      3.954312   530A      3.959158  
     531A      3.973312   532A      3.986702   533A      3.991298  
     534A      3.999233   535A      3.999422   536A      4.005182  
     537A      4.019829   538A      4.032945   539A      4.034719  
     540A      4.042015   541A      4.055112   542A      4.064397  
     543A      4.074365   544A      4.089575   545A      4.097933  
     546A      4.104807   547A      4.110540   548A      4.121561  
     549A      4.141620   550A      4.148393   551A      4.155333  
     552A      4.168697   553A      4.177236   554A      4.183670  
     555A      4.189850   556A      4.194364   557A      4.204662  
     558A      4.206986   559A      4.218770   560A      4.220833  
     561A      4.233495   562A      4.253143   563A      4.266191  
     564A      4.277959   565A      4.286308   566A      4.289720  
     567A      4.304680   568A      4.319258   569A      4.331779  
     570A      4.337691   571A      4.349457   572A      4.359664  
     573A      4.380243   574A      4.387410   575A      4.396569  
     576A      4.406650   577A      4.419203   578A      4.439276  
     579A      4.464702   580A      4.468932   581A      4.472816  
     582A      4.481754   583A      4.497724   584A      4.525146  
     585A      4.529299   586A      4.550718   587A      4.563942  
     588A      4.580589   589A      4.590968   590A      4.604350  
     591A      4.608049   592A      4.623819   593A      4.628817  
     594A      4.647466   595A      4.667763   596A      4.687452  
     597A      4.692852   598A      4.708764   599A      4.718652  
     600A      4.735642   601A      4.751278   602A      4.767170  
     603A      4.775001   604A      4.790763   605A      4.799438  
     606A      4.810939   607A      4.826352   608A      4.832051  
     609A      4.852212   610A      4.863463   611A      4.866904  
     612A      4.887174   613A      4.890530   614A      4.902142  
     615A      4.920070   616A      4.930982   617A      4.946631  
     618A      4.951060   619A      4.958243   620A      4.970457  
     621A      4.979994   622A      4.987565   623A      5.002105  
     624A      5.009611   625A      5.024223   626A      5.034649  
     627A      5.046141   628A      5.059021   629A      5.069480  
     630A      5.071837   631A      5.095300   632A      5.112127  
     633A      5.113237   634A      5.124496   635A      5.143031  
     636A      5.162638   637A      5.174512   638A      5.179625  
     639A      5.196964   640A      5.202743   641A      5.209541  
     642A      5.220492   643A      5.237571   644A      5.249228  
     645A      5.272915   646A      5.305405   647A      5.310014  
     648A      5.322547   649A      5.342510   650A      5.347160  
     651A      5.364346   652A      5.373927   653A      5.384498  
     654A      5.399883   655A      5.414528   656A      5.422816  
     657A      5.442354   658A      5.447742   659A      5.462340  
     660A      5.481895   661A      5.483697   662A      5.497002  
     663A      5.508500   664A      5.521413   665A      5.540565  
     666A      5.553515   667A      5.577843   668A      5.583643  
     669A      5.590618   670A      5.607000   671A      5.630254  
     672A      5.658196   673A      5.673789   674A      5.680249  
     675A      5.714115   676A      5.728970   677A      5.735081  
     678A      5.769282   679A      5.788838   680A      5.820764  
     681A      5.843793   682A      5.858872   683A      5.893981  
     684A      5.943756   685A      5.957687   686A      6.021878  
     687A      6.035594   688A      6.048700   689A      6.111922  
     690A      6.116024   691A      6.150431   692A      6.190516  
     693A      6.202885   694A      6.217981   695A      6.229125  
     696A      6.235968   697A      6.304167   698A      6.326597  
     699A      6.341838   700A      6.362506   701A      6.397184  
     702A      6.552810   703A      6.643864   704A      6.659986  
     705A      6.689599   706A      6.722034   707A      6.764824  
     708A      6.789548   709A      6.800705   710A      6.819718  
     711A      6.837650   712A      6.880221   713A      6.904874  
     714A      6.961996   715A      6.977025   716A      7.006064  
     717A      7.043262   718A      7.121107   719A      7.298842  
     720A      7.352377   721A      7.524604   722A      7.554490  
     723A      7.754197   724A      7.852196   725A      7.977234  
     726A      8.319699   727A      8.624593   728A     15.959687  
     729A     17.123259   730A     17.446566   731A     17.928368  
     732A     18.215528   733A     18.593020   734A     18.884061  
     735A     20.293952   736A     20.992276  

    Final Occupation by Irrep:
              A 
    DOCC [    35 ]

  @DF-RHF Final Energy:  -386.05970722490770

   => Energetics <=

    Nuclear Repulsion Energy =            418.6906481514420193
    One-Electron Energy =               -1353.3384666878944245
    Two-Electron Energy =                 548.5881113115447079
    Total Energy =                       -386.0597072249076973

Computation Completed

*** tstop() called on node55.bme.utexas.edu at Wed Nov  4 04:47:41 2020
Module time:
	user time   =     371.61 seconds =       6.19 minutes
	system time =      44.25 seconds =       0.74 minutes
	total time  =        131 seconds =       2.18 minutes
Total time:
	user time   =     371.61 seconds =       6.19 minutes
	system time =      44.25 seconds =       0.74 minutes
	total time  =        131 seconds =       2.18 minutes
   => Loading Basis Set <=

    Name: (AUG-CC-PVTZ AUX)
    Role: RIFIT
    Keyword: DF_BASIS_MP2
    atoms 1     entry O          line   264 file /home/xy3866/psi4conda/share/psi4/basis/aug-cc-pvtz-ri.gbs 
    atoms 2-9   entry C          line   148 file /home/xy3866/psi4conda/share/psi4/basis/aug-cc-pvtz-ri.gbs 
    atoms 10-23 entry H          line    30 file /home/xy3866/psi4conda/share/psi4/basis/aug-cc-pvtz-ri.gbs 


*** tstart() called on node55.bme.utexas.edu
*** at Wed Nov  4 04:47:41 2020


  //>>>>>>>>>>>>>>>>>>>>>>>>>>>>>>>>>>>//
  //               DFMP2               //
  //<<<<<<<<<<<<<<<<<<<<<<<<<<<<<<<<<<<//

	 --------------------------------------------------------
	                          DF-MP2                         
	      2nd-Order Density-Fitted Moller-Plesset Theory     
	              RMP2 Wavefunction,   8 Threads             
	                                                         
	        Rob Parrish, Justin Turney, Andy Simmonett,      
	           Ed Hohenstein, and C. David Sherrill          
	 --------------------------------------------------------

   => Auxiliary Basis Set <=

  Basis Set: (AUG-CC-PVTZ AUX)
    Blend: AUG-CC-PVTZ-RI
    Number of shells: 448
    Number of basis function: 1598
    Number of Cartesian functions: 1994
    Spherical Harmonics?: true
    Max angular momentum: 4

	 --------------------------------------------------------
	                 NBF =   736, NAUX =  1598
	 --------------------------------------------------------
	   CLASS    FOCC     OCC    AOCC    AVIR     VIR    FVIR
	   PAIRS       0      35      35     701     701       0
	 --------------------------------------------------------

  DFHelper Memory: AOs need 5.637 GiB; user supplied 22.352 GiB. Using in-core AOs.


         ------------------------------------------------------------
                                     CPHF                           
                                  Rob Parrish                       
         ------------------------------------------------------------

  ==> Geometry <==

    Molecular point group: c1
    Full point group: C1

    Geometry (in Angstrom), charge = 0, multiplicity = 1:

       Center              X                  Y                   Z               Mass       
    ------------   -----------------  -----------------  -----------------  -----------------
         O           -2.763808040577    -0.914550628063    -0.742454732731    15.994914619570
         C           -2.773777440577    -0.042252428063     0.387991567269    12.000000000000
         C           -1.340843940577     0.179867371937     0.754351267269    12.000000000000
         C            3.583483559423    -0.227743428063     0.224008567269    12.000000000000
         C           -3.479449440577     1.271560571937     0.066790567269    12.000000000000
         C           -0.284108440577    -0.293084428063     0.114251567269    12.000000000000
         C            2.162136559423    -0.511619428063    -0.145785432731    12.000000000000
         C            1.088387559423    -0.025127428063     0.503961567269    12.000000000000
         C            4.320558559423     0.535929571937    -0.878575432731    12.000000000000
         H           -3.290431440577    -0.525634428063     1.235394567269     1.007825032230
         H           -1.200920440577     0.827593571937     1.650584567269     1.007825032230
         H            3.609268559423     0.347674571937     1.156599567269     1.007825032230
         H            4.110362559423    -1.170605428063     0.420674567269     1.007825032230
         H           -2.985188440577     1.742871571937    -0.785727432731     1.007825032230
         H           -4.531595440577     1.097218571937    -0.184663432731     1.007825032230
         H           -3.447451440577     1.955742571937     0.919466567269     1.007825032230
         H           -0.450887440577    -0.925685428063    -0.754613432731     1.007825032230
         H            2.002458559423    -1.142504428063    -1.022649432731     1.007825032230
         H            1.243256559423     0.608178571937     1.379892567269     1.007825032230
         H            4.310400559423    -0.027569428063    -1.815985432731     1.007825032230
         H            5.364054559423     0.716659571937    -0.604889432731     1.007825032230
         H            3.840395559423     1.500594571937    -1.061585432731     1.007825032230
         H           -3.721461440577    -1.057624428063    -0.977447432731     1.007825032230

  Nuclear repulsion =  418.690648151442019
  Reference energy  = -386.059707224907697

  ==> Basis Set <==

  Basis Set: AUG-CC-PVTZ
    Blend: AUG-CC-PVTZ
    Number of shells: 252
    Number of basis function: 736
    Number of Cartesian functions: 845
    Spherical Harmonics?: true
    Max angular momentum: 3

  ==> CGRSolver (by Rob Parrish) <==

   Number of roots    =         1
   Preconditioning    =    JACOBI
   Convergence cutoff =     1E-06
   Maximum iterations =       100

  ==> CPHFRHamiltonian (by Rob Parrish) <== 

  ==> MemDFJK: Density-Fitted J/K Matrices <==

    J tasked:                   Yes
    K tasked:                   Yes
    wK tasked:                   No
    OpenMP threads:               8
    Memory [MiB]:             22888
    Algorithm:                 Disk
    Schwarz Cutoff:           1E-12
    Mask sparsity (%):      14.1120
    Fitting Condition:        1E-10

   => Auxiliary Basis Set <=

  Basis Set: (AUG-CC-PVTZ AUX)
    Blend: AUG-CC-PVTZ-JKFIT
    Number of shells: 466
    Number of basis function: 1580
    Number of Cartesian functions: 1949
    Spherical Harmonics?: true
    Max angular momentum: 4

  ==> CPHF Iterations <==

  => Iterations <=

             Iter  Converged  Remaining    Residual
  CGR           1          0          1   8.084E-02
  CGR           2          0          1   1.736E-02
  CGR           3          0          1   7.074E-03
  CGR           4          0          1   1.893E-03
  CGR           5          0          1   6.183E-04
  CGR           6          0          1   2.272E-04
  CGR           7          0          1   8.553E-05
  CGR           8          0          1   3.188E-05
  CGR           9          0          1   1.065E-05
  CGR          10          0          1   3.358E-06
  CGR          11          1          0   9.566E-07

    CGRSolver converged.

	-----------------------------------------------------------
	 ==================> DF-MP2 Energies <==================== 
	-----------------------------------------------------------
	 Reference Energy          =    -386.0597072249076973 [Eh]
	 Singles Energy            =      -0.0000000000000000 [Eh]
	 Same-Spin Energy          =      -0.4005854109367263 [Eh]
	 Opposite-Spin Energy      =      -1.3789077448694878 [Eh]
	 Correlation Energy        =      -1.7794931558062141 [Eh]
	 Total Energy              =    -387.8392003807139190 [Eh]
	-----------------------------------------------------------
	 ================> DF-SCS-MP2 Energies <================== 
	-----------------------------------------------------------
	 SCS Same-Spin Scale       =       0.3333333333333333 [-]
	 SCS Opposite-Spin Scale   =       1.2000000000000000 [-]
	 SCS Same-Spin Energy      =      -0.1335284703122421 [Eh]
	 SCS Opposite-Spin Energy  =      -1.6546892938433853 [Eh]
	 SCS Correlation Energy    =      -1.7882177641556274 [Eh]
	 SCS Total Energy          =    -387.8479249890633014 [Eh]
	-----------------------------------------------------------



Properties will be evaluated at  -0.000000,  -0.000000,  -0.000000 [a0]

Properties computed using the MP2 density matrix

  Nuclear Dipole Moment: [e a0]
     X:     4.5356      Y:     3.6957      Z:    -0.4207

  Electronic Dipole Moment: [e a0]
     X:    -5.0136      Y:    -3.4451      Z:     0.6386

  Dipole Moment: [e a0]
     X:    -0.4780      Y:     0.2506      Z:     0.2179     Total:     0.5821

  Dipole Moment: [D]
     X:    -1.2150      Y:     0.6370      Z:     0.5539     Total:     1.4795


*** tstop() called on node55.bme.utexas.edu at Wed Nov  4 04:51:12 2020
Module time:
	user time   =    1220.60 seconds =      20.34 minutes
	system time =      50.84 seconds =       0.85 minutes
	total time  =        211 seconds =       3.52 minutes
Total time:
	user time   =    1593.47 seconds =      26.56 minutes
	system time =      95.13 seconds =       1.59 minutes
	total time  =        342 seconds =       5.70 minutes

    Psi4 stopped on: Wednesday, 04 November 2020 04:51AM
    Psi4 wall time for execution: 0:05:42.30

*** Psi4 exiting successfully. Buy a developer a beer!
