
    -----------------------------------------------------------------------
          Psi4: An Open-Source Ab Initio Electronic Structure Package
                               Psi4 1.3.2 release

                         Git: Rev {HEAD} ecbda83 


    R. M. Parrish, L. A. Burns, D. G. A. Smith, A. C. Simmonett,
    A. E. DePrince III, E. G. Hohenstein, U. Bozkaya, A. Yu. Sokolov,
    R. Di Remigio, R. M. Richard, J. F. Gonthier, A. M. James,
    H. R. McAlexander, A. Kumar, M. Saitow, X. Wang, B. P. Pritchard,
    P. Verma, H. F. Schaefer III, K. Patkowski, R. A. King, E. F. Valeev,
    F. A. Evangelista, J. M. Turney, T. D. Crawford, and C. D. Sherrill,
    J. Chem. Theory Comput. 13(7) pp 3185--3197 (2017).
    (doi: 10.1021/acs.jctc.7b00174)


                         Additional Contributions by
    P. Kraus, H. Kruse, M. H. Lechner, M. C. Schieber, R. A. Shaw,
    A. Alenaizan, R. Galvelis, Z. L. Glick, S. Lehtola, and J. P. Misiewicz

    -----------------------------------------------------------------------


    Psi4 started on: Wednesday, 04 November 2020 08:39AM

    Process ID: 51293
    Host:       node55.bme.utexas.edu
    PSIDATADIR: /home/xy3866/psi4conda/share/psi4
    Memory:     500.0 MiB
    Threads:    8
    
  ==> Input File <==

--------------------------------------------------------------------------
#psi4
#
memory 32 gb

molecule  {
0 1
  O       -2.7848290    -0.9154220    -0.7447340
  C       -2.7442660    -0.0867381     0.3259239
  C       -1.3446020     0.1937550     0.7721520
  C        3.5873700    -0.2293000     0.2222030
  C       -3.4755630     1.2700040     0.0649850
  C       -0.3246177    -0.3253187     0.0672818
  C        2.1660230    -0.5131760    -0.1475910
  C        1.0922740    -0.0266840     0.5021560
  C        4.3244450     0.5343730    -0.8803810
  H       -3.2865450    -0.5271910     1.2335890
  H       -1.1970340     0.8260370     1.6487790
  H        3.6131550     0.3461180     1.1547940
  H        4.1142490    -1.1721620     0.4188690
  H       -2.9813020     1.7413150    -0.7875330
  H       -4.5277090     1.0956620    -0.1864690
  H       -3.4435650     1.9541860     0.9176610
  H       -0.4470010    -0.9272420    -0.7564190
  H        2.0063450    -1.1440610    -1.0244550
  H        1.2471430     0.6066220     1.3780870
  H        4.3142870    -0.0291260    -1.8177910
  H        5.3679410     0.7151030    -0.6066950
  H        3.8442820     1.4990380    -1.0633910
  H       -3.7175750    -1.0591810    -0.9792530
units angstrom
no_reorient  #important for SAPT in psi4, default
symmetry c1  #important for SAPT in psi4, default
}

set PROPERTIES_ORIGIN ["COM"]
properties('MP2/aug-cc-pvtz', properties = ['dipole'])
--------------------------------------------------------------------------

  Memory set to  29.802 GiB by Python driver.
    SCF Algorithm Type (re)set to DF.

*** tstart() called on node55.bme.utexas.edu
*** at Wed Nov  4 08:39:25 2020

   => Loading Basis Set <=

    Name: AUG-CC-PVTZ
    Role: ORBITAL
    Keyword: BASIS
    atoms 1     entry O          line   327 file /home/xy3866/psi4conda/share/psi4/basis/aug-cc-pvtz.gbs 
    atoms 2-9   entry C          line   235 file /home/xy3866/psi4conda/share/psi4/basis/aug-cc-pvtz.gbs 
    atoms 10-23 entry H          line    36 file /home/xy3866/psi4conda/share/psi4/basis/aug-cc-pvtz.gbs 


         ---------------------------------------------------------
                                   SCF
               by Justin Turney, Rob Parrish, Andy Simmonett
                          and Daniel G. A. Smith
                              RHF Reference
                        8 Threads,  30517 MiB Core
         ---------------------------------------------------------

  ==> Geometry <==

    Molecular point group: c1
    Full point group: C1

    Geometry (in Angstrom), charge = 0, multiplicity = 1:

       Center              X                  Y                   Z               Mass       
    ------------   -----------------  -----------------  -----------------  -----------------
         O           -2.783042571373    -0.908417631396    -0.734701786747    15.994914619570
         C           -2.742479571373    -0.079733731396     0.335956113253    12.000000000000
         C           -1.342815571373     0.200759368604     0.782184213253    12.000000000000
         C            3.589156428627    -0.222295631396     0.232235213253    12.000000000000
         C           -3.473776571373     1.277008368604     0.075017213253    12.000000000000
         C           -0.322831271373    -0.318314331396     0.077314013253    12.000000000000
         C            2.167809428627    -0.506171631396    -0.137558786747    12.000000000000
         C            1.094060428627    -0.019679631396     0.512188213253    12.000000000000
         C            4.326231428627     0.541377368604    -0.870348786747    12.000000000000
         H           -3.284758571373    -0.520186631396     1.243621213253     1.007825032230
         H           -1.195247571373     0.833041368604     1.658811213253     1.007825032230
         H            3.614941428627     0.353122368604     1.164826213253     1.007825032230
         H            4.116035428627    -1.165157631396     0.428901213253     1.007825032230
         H           -2.979515571373     1.748319368604    -0.777500786747     1.007825032230
         H           -4.525922571373     1.102666368604    -0.176436786747     1.007825032230
         H           -3.441778571373     1.961190368604     0.927693213253     1.007825032230
         H           -0.445214571373    -0.920237631396    -0.746386786747     1.007825032230
         H            2.008131428627    -1.137056631396    -1.014422786747     1.007825032230
         H            1.248929428627     0.613626368604     1.388119213253     1.007825032230
         H            4.316073428627    -0.022121631396    -1.807758786747     1.007825032230
         H            5.369727428627     0.722107368604    -0.596662786747     1.007825032230
         H            3.846068428627     1.506042368604    -1.053358786747     1.007825032230
         H           -3.715788571373    -1.052176631396    -0.969220786747     1.007825032230

  Running in c1 symmetry.

  Rotational constants: A =      0.16160  B =      0.01620  C =      0.01585 [cm^-1]
  Rotational constants: A =   4844.62670  B =    485.61708  C =    475.04915 [MHz]
  Nuclear repulsion =  418.769458816890051

  Charge       = 0
  Multiplicity = 1
  Electrons    = 70
  Nalpha       = 35
  Nbeta        = 35

  ==> Algorithm <==

  SCF Algorithm Type is DF.
  DIIS enabled.
  MOM disabled.
  Fractional occupation disabled.
  Guess Type is SAD.
  Energy threshold   = 1.00e-10
  Density threshold  = 1.00e-10
  Integral threshold = 0.00e+00

  ==> Primary Basis <==

  Basis Set: AUG-CC-PVTZ
    Blend: AUG-CC-PVTZ
    Number of shells: 252
    Number of basis function: 736
    Number of Cartesian functions: 845
    Spherical Harmonics?: true
    Max angular momentum: 3

   => Loading Basis Set <=

    Name: (AUG-CC-PVTZ AUX)
    Role: JKFIT
    Keyword: DF_BASIS_SCF
    atoms 1     entry O          line   286 file /home/xy3866/psi4conda/share/psi4/basis/aug-cc-pvtz-jkfit.gbs 
    atoms 2-9   entry C          line   162 file /home/xy3866/psi4conda/share/psi4/basis/aug-cc-pvtz-jkfit.gbs 
    atoms 10-23 entry H          line    70 file /home/xy3866/psi4conda/share/psi4/basis/aug-cc-pvtz-jkfit.gbs 

  ==> Pre-Iterations <==

   -------------------------------------------------------
    Irrep   Nso     Nmo     Nalpha   Nbeta   Ndocc  Nsocc
   -------------------------------------------------------
     A        736     736       0       0       0       0
   -------------------------------------------------------
    Total     736     736      35      35      35       0
   -------------------------------------------------------

  ==> Integral Setup <==

  DFHelper Memory: AOs need 5.636 GiB; user supplied 22.352 GiB. Using in-core AOs.

  ==> MemDFJK: Density-Fitted J/K Matrices <==

    J tasked:                   Yes
    K tasked:                   Yes
    wK tasked:                   No
    OpenMP threads:               8
    Memory [MiB]:             22888
    Algorithm:                 Disk
    Schwarz Cutoff:           1E-12
    Mask sparsity (%):      14.1312
    Fitting Condition:        1E-10

   => Auxiliary Basis Set <=

  Basis Set: (AUG-CC-PVTZ AUX)
    Blend: AUG-CC-PVTZ-JKFIT
    Number of shells: 466
    Number of basis function: 1580
    Number of Cartesian functions: 1949
    Spherical Harmonics?: true
    Max angular momentum: 4

  Minimum eigenvalue in the overlap matrix is 1.6222217805E-06.
  Using Symmetric Orthogonalization.

  SCF Guess: Superposition of Atomic Densities via on-the-fly atomic UHF.

  ==> Iterations <==

                           Total Energy        Delta E     RMS |[F,P]|

   @DF-RHF iter SAD:  -385.00408611040109   -3.85004e+02   0.00000e+00 
   @DF-RHF iter   1:  -385.69275667567138   -6.88671e-01   1.04444e-03 DIIS
   @DF-RHF iter   2:  -385.99071043692970   -2.97954e-01   4.80860e-04 DIIS
   @DF-RHF iter   3:  -386.04769315798228   -5.69827e-02   9.75729e-05 DIIS
   @DF-RHF iter   4:  -386.05185070945294   -4.15755e-03   3.86347e-05 DIIS
   @DF-RHF iter   5:  -386.05229125791914   -4.40548e-04   6.61711e-06 DIIS
   @DF-RHF iter   6:  -386.05231792012842   -2.66622e-05   2.05703e-06 DIIS
   @DF-RHF iter   7:  -386.05232026388148   -2.34375e-06   6.25894e-07 DIIS
   @DF-RHF iter   8:  -386.05232061139685   -3.47515e-07   3.15663e-07 DIIS
   @DF-RHF iter   9:  -386.05232067128316   -5.98863e-08   9.69556e-08 DIIS
   @DF-RHF iter  10:  -386.05232068257999   -1.12968e-08   4.50196e-08 DIIS
   @DF-RHF iter  11:  -386.05232068421753   -1.63755e-09   1.28740e-08 DIIS
   @DF-RHF iter  12:  -386.05232068435163   -1.34094e-10   4.24820e-09 DIIS
   @DF-RHF iter  13:  -386.05232068436510   -1.34719e-11   1.71803e-09 DIIS
   @DF-RHF iter  14:  -386.05232068436794   -2.84217e-12   5.23450e-10 DIIS
   @DF-RHF iter  15:  -386.05232068436868   -7.38964e-13   2.12680e-10 DIIS
   @DF-RHF iter  16:  -386.05232068436834    3.41061e-13   5.58489e-11 DIIS
  Energy and wave function converged.


  ==> Post-Iterations <==

    Orbital Energies [Eh]
    ---------------------

    Doubly Occupied:                                                      

       1A    -20.567383     2A    -11.287221     3A    -11.225811  
       4A    -11.223547     5A    -11.222316     6A    -11.221531  
       7A    -11.220463     8A    -11.218698     9A    -11.211735  
      10A     -1.393253    11A     -1.092772    12A     -1.059421  
      13A     -1.006161    14A     -0.959714    15A     -0.872657  
      16A     -0.827610    17A     -0.764117    18A     -0.747685  
      19A     -0.700612    20A     -0.648089    21A     -0.625037  
      22A     -0.621178    23A     -0.593796    24A     -0.580219  
      25A     -0.550472    26A     -0.543525    27A     -0.532537  
      28A     -0.522495    29A     -0.510405    30A     -0.489596  
      31A     -0.477515    32A     -0.455219    33A     -0.444613  
      34A     -0.406528    35A     -0.298706  

    Virtual:                                                              

      36A      0.026849    37A      0.031883    38A      0.034409  
      39A      0.039566    40A      0.044035    41A      0.046571  
      42A      0.047915    43A      0.059830    44A      0.061173  
      45A      0.065064    46A      0.066733    47A      0.075744  
      48A      0.083528    49A      0.084934    50A      0.101767  
      51A      0.107653    52A      0.109785    53A      0.114738  
      54A      0.114945    55A      0.116201    56A      0.124066  
      57A      0.127588    58A      0.132068    59A      0.133505  
      60A      0.135951    61A      0.141601    62A      0.146169  
      63A      0.149036    64A      0.152260    65A      0.158115  
      66A      0.161457    67A      0.162862    68A      0.168220  
      69A      0.177191    70A      0.177471    71A      0.181640  
      72A      0.186331    73A      0.190881    74A      0.196616  
      75A      0.213124    76A      0.216776    77A      0.223109  
      78A      0.228876    79A      0.234466    80A      0.235259  
      81A      0.242533    82A      0.245841    83A      0.248351  
      84A      0.251512    85A      0.257109    86A      0.265884  
      87A      0.273401    88A      0.280189    89A      0.282538  
      90A      0.286305    91A      0.296999    92A      0.297605  
      93A      0.303162    94A      0.306799    95A      0.309152  
      96A      0.312992    97A      0.317391    98A      0.320739  
      99A      0.324082   100A      0.330701   101A      0.335760  
     102A      0.345550   103A      0.347132   104A      0.351737  
     105A      0.356715   106A      0.362120   107A      0.363355  
     108A      0.373700   109A      0.375074   110A      0.379648  
     111A      0.382314   112A      0.383776   113A      0.388007  
     114A      0.392136   115A      0.394627   116A      0.396312  
     117A      0.399500   118A      0.406532   119A      0.409536  
     120A      0.414436   121A      0.417260   122A      0.424005  
     123A      0.426688   124A      0.432886   125A      0.434187  
     126A      0.438580   127A      0.441922   128A      0.447720  
     129A      0.450226   130A      0.451057   131A      0.461383  
     132A      0.463967   133A      0.469659   134A      0.472524  
     135A      0.473912   136A      0.479344   137A      0.483719  
     138A      0.489723   139A      0.491557   140A      0.492570  
     141A      0.497656   142A      0.500341   143A      0.503098  
     144A      0.506370   145A      0.510186   146A      0.511444  
     147A      0.516174   148A      0.518189   149A      0.526545  
     150A      0.533869   151A      0.537055   152A      0.539126  
     153A      0.541465   154A      0.544251   155A      0.556598  
     156A      0.557163   157A      0.563652   158A      0.565475  
     159A      0.573647   160A      0.577610   161A      0.580201  
     162A      0.581915   163A      0.593292   164A      0.594885  
     165A      0.601591   166A      0.603234   167A      0.608957  
     168A      0.613873   169A      0.625518   170A      0.627290  
     171A      0.632453   172A      0.637030   173A      0.638587  
     174A      0.658776   175A      0.662889   176A      0.670270  
     177A      0.677770   178A      0.691855   179A      0.693752  
     180A      0.703021   181A      0.704679   182A      0.714694  
     183A      0.723977   184A      0.731672   185A      0.745720  
     186A      0.747755   187A      0.753967   188A      0.758834  
     189A      0.768020   190A      0.773196   191A      0.780207  
     192A      0.787165   193A      0.801399   194A      0.813744  
     195A      0.817795   196A      0.818908   197A      0.820992  
     198A      0.823591   199A      0.832694   200A      0.837865  
     201A      0.843008   202A      0.845140   203A      0.849030  
     204A      0.862934   205A      0.864183   206A      0.876856  
     207A      0.878875   208A      0.884471   209A      0.886647  
     210A      0.896152   211A      0.899622   212A      0.902788  
     213A      0.907710   214A      0.911218   215A      0.919150  
     216A      0.923003   217A      0.928729   218A      0.930307  
     219A      0.944553   220A      0.945055   221A      0.948293  
     222A      0.951830   223A      0.959184   224A      0.963378  
     225A      0.967610   226A      0.977981   227A      0.979174  
     228A      0.984622   229A      0.988819   230A      0.996939  
     231A      0.999850   232A      1.003795   233A      1.011448  
     234A      1.015425   235A      1.020449   236A      1.026614  
     237A      1.027678   238A      1.035031   239A      1.037491  
     240A      1.043158   241A      1.049548   242A      1.050595  
     243A      1.057649   244A      1.061519   245A      1.068057  
     246A      1.071407   247A      1.078682   248A      1.080850  
     249A      1.089441   250A      1.093552   251A      1.095149  
     252A      1.101471   253A      1.104147   254A      1.107792  
     255A      1.119255   256A      1.131080   257A      1.133760  
     258A      1.134045   259A      1.140488   260A      1.146164  
     261A      1.158469   262A      1.161616   263A      1.164513  
     264A      1.170285   265A      1.173062   266A      1.181136  
     267A      1.186984   268A      1.190184   269A      1.196843  
     270A      1.202833   271A      1.208932   272A      1.214316  
     273A      1.222708   274A      1.227278   275A      1.229494  
     276A      1.230516   277A      1.234635   278A      1.239963  
     279A      1.247077   280A      1.251846   281A      1.260023  
     282A      1.266805   283A      1.271910   284A      1.278816  
     285A      1.281976   286A      1.289337   287A      1.294895  
     288A      1.299906   289A      1.306922   290A      1.312745  
     291A      1.321019   292A      1.330094   293A      1.333409  
     294A      1.341547   295A      1.348686   296A      1.360689  
     297A      1.363950   298A      1.366086   299A      1.381591  
     300A      1.391610   301A      1.399532   302A      1.404666  
     303A      1.417290   304A      1.432747   305A      1.434173  
     306A      1.440831   307A      1.452002   308A      1.456153  
     309A      1.467297   310A      1.477204   311A      1.479655  
     312A      1.490487   313A      1.495731   314A      1.501416  
     315A      1.507560   316A      1.514312   317A      1.520041  
     318A      1.530459   319A      1.536291   320A      1.545650  
     321A      1.553819   322A      1.567675   323A      1.571293  
     324A      1.577937   325A      1.581868   326A      1.586314  
     327A      1.605934   328A      1.612022   329A      1.615679  
     330A      1.626228   331A      1.638804   332A      1.645453  
     333A      1.651046   334A      1.656810   335A      1.665885  
     336A      1.677478   337A      1.684549   338A      1.686932  
     339A      1.700646   340A      1.703771   341A      1.710189  
     342A      1.715101   343A      1.717621   344A      1.728399  
     345A      1.730968   346A      1.734945   347A      1.743115  
     348A      1.755003   349A      1.759419   350A      1.766776  
     351A      1.770233   352A      1.777421   353A      1.783429  
     354A      1.790395   355A      1.801103   356A      1.803558  
     357A      1.822472   358A      1.825242   359A      1.838917  
     360A      1.842591   361A      1.848524   362A      1.860149  
     363A      1.861013   364A      1.865515   365A      1.875897  
     366A      1.877984   367A      1.888140   368A      1.897788  
     369A      1.906040   370A      1.907981   371A      1.910942  
     372A      1.918686   373A      1.932905   374A      1.938838  
     375A      1.947439   376A      1.947972   377A      1.955936  
     378A      1.962339   379A      1.975736   380A      1.982010  
     381A      1.990119   382A      1.991415   383A      2.003711  
     384A      2.015527   385A      2.023317   386A      2.034460  
     387A      2.042614   388A      2.044722   389A      2.052899  
     390A      2.073352   391A      2.081574   392A      2.084935  
     393A      2.100574   394A      2.114483   395A      2.117376  
     396A      2.125902   397A      2.129722   398A      2.135868  
     399A      2.151280   400A      2.163979   401A      2.172369  
     402A      2.175312   403A      2.184015   404A      2.192687  
     405A      2.211683   406A      2.215902   407A      2.222873  
     408A      2.230791   409A      2.231823   410A      2.250124  
     411A      2.261725   412A      2.268224   413A      2.276795  
     414A      2.285532   415A      2.291821   416A      2.294023  
     417A      2.310403   418A      2.322525   419A      2.324307  
     420A      2.340941   421A      2.350762   422A      2.362637  
     423A      2.372235   424A      2.377695   425A      2.394507  
     426A      2.398559   427A      2.419343   428A      2.425652  
     429A      2.434602   430A      2.447117   431A      2.461262  
     432A      2.486163   433A      2.488982   434A      2.497825  
     435A      2.519281   436A      2.529132   437A      2.555045  
     438A      2.569800   439A      2.597431   440A      2.620307  
     441A      2.629845   442A      2.631694   443A      2.654185  
     444A      2.676050   445A      2.685244   446A      2.705663  
     447A      2.711467   448A      2.728939   449A      2.769169  
     450A      2.800922   451A      2.844735   452A      2.852181  
     453A      2.904493   454A      2.941797   455A      2.951075  
     456A      2.985767   457A      3.019779   458A      3.032642  
     459A      3.046956   460A      3.082329   461A      3.127300  
     462A      3.132786   463A      3.188305   464A      3.199548  
     465A      3.222874   466A      3.235305   467A      3.253709  
     468A      3.257888   469A      3.276238   470A      3.284003  
     471A      3.324343   472A      3.332634   473A      3.339703  
     474A      3.366650   475A      3.386229   476A      3.394376  
     477A      3.407988   478A      3.425620   479A      3.449969  
     480A      3.461360   481A      3.474731   482A      3.475946  
     483A      3.483784   484A      3.506418   485A      3.516507  
     486A      3.524601   487A      3.535974   488A      3.550607  
     489A      3.555988   490A      3.575978   491A      3.592811  
     492A      3.594768   493A      3.609014   494A      3.616443  
     495A      3.620039   496A      3.634080   497A      3.640247  
     498A      3.650765   499A      3.659784   500A      3.673289  
     501A      3.683670   502A      3.686221   503A      3.694613  
     504A      3.700362   505A      3.705316   506A      3.712300  
     507A      3.725198   508A      3.731172   509A      3.748971  
     510A      3.753292   511A      3.768606   512A      3.771209  
     513A      3.781409   514A      3.800043   515A      3.806610  
     516A      3.812659   517A      3.825421   518A      3.833356  
     519A      3.846646   520A      3.851372   521A      3.857953  
     522A      3.870488   523A      3.874968   524A      3.898791  
     525A      3.904297   526A      3.917474   527A      3.932236  
     528A      3.940537   529A      3.951015   530A      3.956874  
     531A      3.968898   532A      3.984469   533A      3.988609  
     534A      3.991317   535A      3.993715   536A      4.010550  
     537A      4.020532   538A      4.027666   539A      4.035675  
     540A      4.038016   541A      4.054089   542A      4.058862  
     543A      4.078019   544A      4.082997   545A      4.098757  
     546A      4.102724   547A      4.111876   548A      4.129780  
     549A      4.141309   550A      4.145258   551A      4.166512  
     552A      4.175914   553A      4.178813   554A      4.185901  
     555A      4.198044   556A      4.203013   557A      4.208090  
     558A      4.210654   559A      4.219592   560A      4.229915  
     561A      4.247983   562A      4.251180   563A      4.262756  
     564A      4.272552   565A      4.287257   566A      4.292598  
     567A      4.296395   568A      4.320649   569A      4.330494  
     570A      4.350762   571A      4.354258   572A      4.359545  
     573A      4.379754   574A      4.386834   575A      4.399185  
     576A      4.420285   577A      4.428677   578A      4.436958  
     579A      4.460358   580A      4.470832   581A      4.490935  
     582A      4.501778   583A      4.504612   584A      4.517917  
     585A      4.529126   586A      4.544647   587A      4.566913  
     588A      4.584677   589A      4.593844   590A      4.602461  
     591A      4.617310   592A      4.623261   593A      4.638994  
     594A      4.645806   595A      4.661905   596A      4.688135  
     597A      4.699344   598A      4.706570   599A      4.722105  
     600A      4.725889   601A      4.729366   602A      4.750913  
     603A      4.762590   604A      4.775845   605A      4.790837  
     606A      4.803855   607A      4.814306   608A      4.831499  
     609A      4.848483   610A      4.860557   611A      4.864141  
     612A      4.878641   613A      4.888918   614A      4.896786  
     615A      4.906989   616A      4.914171   617A      4.935195  
     618A      4.949092   619A      4.956197   620A      4.971215  
     621A      4.984203   622A      4.999928   623A      5.003945  
     624A      5.022928   625A      5.025940   626A      5.045242  
     627A      5.047500   628A      5.060515   629A      5.065667  
     630A      5.080701   631A      5.086025   632A      5.110685  
     633A      5.122188   634A      5.126641   635A      5.134046  
     636A      5.153015   637A      5.168418   638A      5.186922  
     639A      5.199509   640A      5.203583   641A      5.211653  
     642A      5.226631   643A      5.239221   644A      5.247349  
     645A      5.282873   646A      5.294180   647A      5.305844  
     648A      5.322355   649A      5.331304   650A      5.341984  
     651A      5.365292   652A      5.371568   653A      5.386788  
     654A      5.402201   655A      5.415025   656A      5.416299  
     657A      5.438639   658A      5.452120   659A      5.460756  
     660A      5.483499   661A      5.495706   662A      5.497751  
     663A      5.515336   664A      5.544386   665A      5.549260  
     666A      5.575054   667A      5.578211   668A      5.593710  
     669A      5.600106   670A      5.626853   671A      5.644465  
     672A      5.672458   673A      5.677435   674A      5.689875  
     675A      5.708363   676A      5.716575   677A      5.751911  
     678A      5.769879   679A      5.791960   680A      5.832636  
     681A      5.842660   682A      5.847691   683A      5.887829  
     684A      5.928667   685A      5.970249   686A      6.010672  
     687A      6.030353   688A      6.083005   689A      6.106976  
     690A      6.123679   691A      6.138705   692A      6.187045  
     693A      6.200129   694A      6.209706   695A      6.224137  
     696A      6.231994   697A      6.277595   698A      6.302395  
     699A      6.356824   700A      6.361622   701A      6.425913  
     702A      6.555598   703A      6.574804   704A      6.649973  
     705A      6.660271   706A      6.721134   707A      6.765512  
     708A      6.789349   709A      6.797718   710A      6.812807  
     711A      6.841368   712A      6.871441   713A      6.911441  
     714A      6.955359   715A      6.980286   716A      7.006304  
     717A      7.091706   718A      7.168108   719A      7.345687  
     720A      7.453560   721A      7.546330   722A      7.589192  
     723A      7.771392   724A      7.883035   725A      7.976208  
     726A      8.374421   727A      8.741478   728A     16.587021  
     729A     17.082377   730A     17.454063   731A     17.865423  
     732A     17.916176   733A     18.415385   734A     18.742593  
     735A     20.155902   736A     20.734133  

    Final Occupation by Irrep:
              A 
    DOCC [    35 ]

  @DF-RHF Final Energy:  -386.05232068436834

   => Energetics <=

    Nuclear Repulsion Energy =            418.7694588168900509
    One-Electron Energy =               -1353.3982801916645258
    Two-Electron Energy =                 548.5765006904061920
    Total Energy =                       -386.0523206843682829

Computation Completed

*** tstop() called on node55.bme.utexas.edu at Wed Nov  4 08:41:35 2020
Module time:
	user time   =     368.56 seconds =       6.14 minutes
	system time =      43.26 seconds =       0.72 minutes
	total time  =        130 seconds =       2.17 minutes
Total time:
	user time   =     368.56 seconds =       6.14 minutes
	system time =      43.26 seconds =       0.72 minutes
	total time  =        130 seconds =       2.17 minutes
   => Loading Basis Set <=

    Name: (AUG-CC-PVTZ AUX)
    Role: RIFIT
    Keyword: DF_BASIS_MP2
    atoms 1     entry O          line   264 file /home/xy3866/psi4conda/share/psi4/basis/aug-cc-pvtz-ri.gbs 
    atoms 2-9   entry C          line   148 file /home/xy3866/psi4conda/share/psi4/basis/aug-cc-pvtz-ri.gbs 
    atoms 10-23 entry H          line    30 file /home/xy3866/psi4conda/share/psi4/basis/aug-cc-pvtz-ri.gbs 


*** tstart() called on node55.bme.utexas.edu
*** at Wed Nov  4 08:41:35 2020


  //>>>>>>>>>>>>>>>>>>>>>>>>>>>>>>>>>>>//
  //               DFMP2               //
  //<<<<<<<<<<<<<<<<<<<<<<<<<<<<<<<<<<<//

	 --------------------------------------------------------
	                          DF-MP2                         
	      2nd-Order Density-Fitted Moller-Plesset Theory     
	              RMP2 Wavefunction,   8 Threads             
	                                                         
	        Rob Parrish, Justin Turney, Andy Simmonett,      
	           Ed Hohenstein, and C. David Sherrill          
	 --------------------------------------------------------

   => Auxiliary Basis Set <=

  Basis Set: (AUG-CC-PVTZ AUX)
    Blend: AUG-CC-PVTZ-RI
    Number of shells: 448
    Number of basis function: 1598
    Number of Cartesian functions: 1994
    Spherical Harmonics?: true
    Max angular momentum: 4

	 --------------------------------------------------------
	                 NBF =   736, NAUX =  1598
	 --------------------------------------------------------
	   CLASS    FOCC     OCC    AOCC    AVIR     VIR    FVIR
	   PAIRS       0      35      35     701     701       0
	 --------------------------------------------------------

  DFHelper Memory: AOs need 5.636 GiB; user supplied 22.352 GiB. Using in-core AOs.


         ------------------------------------------------------------
                                     CPHF                           
                                  Rob Parrish                       
         ------------------------------------------------------------

  ==> Geometry <==

    Molecular point group: c1
    Full point group: C1

    Geometry (in Angstrom), charge = 0, multiplicity = 1:

       Center              X                  Y                   Z               Mass       
    ------------   -----------------  -----------------  -----------------  -----------------
         O           -2.783042571373    -0.908417631396    -0.734701786747    15.994914619570
         C           -2.742479571373    -0.079733731396     0.335956113253    12.000000000000
         C           -1.342815571373     0.200759368604     0.782184213253    12.000000000000
         C            3.589156428627    -0.222295631396     0.232235213253    12.000000000000
         C           -3.473776571373     1.277008368604     0.075017213253    12.000000000000
         C           -0.322831271373    -0.318314331396     0.077314013253    12.000000000000
         C            2.167809428627    -0.506171631396    -0.137558786747    12.000000000000
         C            1.094060428627    -0.019679631396     0.512188213253    12.000000000000
         C            4.326231428627     0.541377368604    -0.870348786747    12.000000000000
         H           -3.284758571373    -0.520186631396     1.243621213253     1.007825032230
         H           -1.195247571373     0.833041368604     1.658811213253     1.007825032230
         H            3.614941428627     0.353122368604     1.164826213253     1.007825032230
         H            4.116035428627    -1.165157631396     0.428901213253     1.007825032230
         H           -2.979515571373     1.748319368604    -0.777500786747     1.007825032230
         H           -4.525922571373     1.102666368604    -0.176436786747     1.007825032230
         H           -3.441778571373     1.961190368604     0.927693213253     1.007825032230
         H           -0.445214571373    -0.920237631396    -0.746386786747     1.007825032230
         H            2.008131428627    -1.137056631396    -1.014422786747     1.007825032230
         H            1.248929428627     0.613626368604     1.388119213253     1.007825032230
         H            4.316073428627    -0.022121631396    -1.807758786747     1.007825032230
         H            5.369727428627     0.722107368604    -0.596662786747     1.007825032230
         H            3.846068428627     1.506042368604    -1.053358786747     1.007825032230
         H           -3.715788571373    -1.052176631396    -0.969220786747     1.007825032230

  Nuclear repulsion =  418.769458816890051
  Reference energy  = -386.052320684368340

  ==> Basis Set <==

  Basis Set: AUG-CC-PVTZ
    Blend: AUG-CC-PVTZ
    Number of shells: 252
    Number of basis function: 736
    Number of Cartesian functions: 845
    Spherical Harmonics?: true
    Max angular momentum: 3

  ==> CGRSolver (by Rob Parrish) <==

   Number of roots    =         1
   Preconditioning    =    JACOBI
   Convergence cutoff =     1E-06
   Maximum iterations =       100

  ==> CPHFRHamiltonian (by Rob Parrish) <== 

  ==> MemDFJK: Density-Fitted J/K Matrices <==

    J tasked:                   Yes
    K tasked:                   Yes
    wK tasked:                   No
    OpenMP threads:               8
    Memory [MiB]:             22888
    Algorithm:                 Disk
    Schwarz Cutoff:           1E-12
    Mask sparsity (%):      14.1312
    Fitting Condition:        1E-10

   => Auxiliary Basis Set <=

  Basis Set: (AUG-CC-PVTZ AUX)
    Blend: AUG-CC-PVTZ-JKFIT
    Number of shells: 466
    Number of basis function: 1580
    Number of Cartesian functions: 1949
    Spherical Harmonics?: true
    Max angular momentum: 4

  ==> CPHF Iterations <==

  => Iterations <=

             Iter  Converged  Remaining    Residual
  CGR           1          0          1   7.897E-02
  CGR           2          0          1   1.618E-02
  CGR           3          0          1   6.413E-03
  CGR           4          0          1   1.700E-03
  CGR           5          0          1   5.557E-04
  CGR           6          0          1   1.891E-04
  CGR           7          0          1   7.219E-05
  CGR           8          0          1   2.694E-05
  CGR           9          0          1   9.380E-06
  CGR          10          0          1   3.075E-06
  CGR          11          1          0   9.289E-07

    CGRSolver converged.

	-----------------------------------------------------------
	 ==================> DF-MP2 Energies <==================== 
	-----------------------------------------------------------
	 Reference Energy          =    -386.0523206843683397 [Eh]
	 Singles Energy            =      -0.0000000000000000 [Eh]
	 Same-Spin Energy          =      -0.3997997685254484 [Eh]
	 Opposite-Spin Energy      =      -1.3770286031511692 [Eh]
	 Correlation Energy        =      -1.7768283716766176 [Eh]
	 Total Energy              =    -387.8291490560449688 [Eh]
	-----------------------------------------------------------
	 ================> DF-SCS-MP2 Energies <================== 
	-----------------------------------------------------------
	 SCS Same-Spin Scale       =       0.3333333333333333 [-]
	 SCS Opposite-Spin Scale   =       1.2000000000000000 [-]
	 SCS Same-Spin Energy      =      -0.1332665895084828 [Eh]
	 SCS Opposite-Spin Energy  =      -1.6524343237814030 [Eh]
	 SCS Correlation Energy    =      -1.7857009132898858 [Eh]
	 SCS Total Energy          =    -387.8380215976582122 [Eh]
	-----------------------------------------------------------



Properties will be evaluated at  -0.000000,   0.000000,   0.000000 [a0]

Properties computed using the MP2 density matrix

  Nuclear Dipole Moment: [e a0]
     X:     4.6099      Y:     3.7672      Z:    -0.3127

  Electronic Dipole Moment: [e a0]
     X:    -5.0972      Y:    -3.5831      Z:     0.4718

  Dipole Moment: [e a0]
     X:    -0.4873      Y:     0.1842      Z:     0.1591     Total:     0.5447

  Dipole Moment: [D]
     X:    -1.2385      Y:     0.4681      Z:     0.4044     Total:     1.3844


*** tstop() called on node55.bme.utexas.edu at Wed Nov  4 08:45:02 2020
Module time:
	user time   =    1209.41 seconds =      20.16 minutes
	system time =      52.84 seconds =       0.88 minutes
	total time  =        207 seconds =       3.45 minutes
Total time:
	user time   =    1579.24 seconds =      26.32 minutes
	system time =      96.14 seconds =       1.60 minutes
	total time  =        337 seconds =       5.62 minutes

    Psi4 stopped on: Wednesday, 04 November 2020 08:45AM
    Psi4 wall time for execution: 0:05:37.13

*** Psi4 exiting successfully. Buy a developer a beer!
