015_CH3SH Gaussian SP Calculation on node142.bme.utexas.edu             
Freq      RMP2-FC                                                     6-31G(d)            
Number of atoms                            I                6
Info1-9                                    I   N=           9
          17          16        1002           0           0         100
           6           2           1
Charge                                     I                0
Multiplicity                               I                1
Number of electrons                        I               26
Number of alpha electrons                  I               13
Number of beta electrons                   I               13
Number of basis functions                  I               42
Number of independent functions            I               42
Number of point charges in /Mol/           I                0
Number of translation vectors              I                0
Atomic numbers                             I   N=           6
           6          16           1           1           1           1
Nuclear charges                            R   N=           6
  6.00000000E+00  1.60000000E+01  1.00000000E+00  1.00000000E+00  1.00000000E+00
  1.00000000E+00
Current cartesian coordinates              R   N=          18
 -2.17601612E+00  3.58587812E-02 -5.51699175E-08  1.25019710E+00 -1.63597480E-01
 -1.52974921E-07  1.69523645E+00  2.33014102E+00  2.15727807E-06 -2.88099272E+00
  9.86671461E-01 -1.68662646E+00 -2.88030819E+00 -1.90101245E+00 -3.55825184E-05
 -2.88099243E+00  9.86606967E-01  1.68666266E+00
Force Field                                I                0
Int Atom Types                             I   N=           6
           0           0           0           0           0           0
MM charges                                 R   N=           6
  0.00000000E+00  0.00000000E+00  0.00000000E+00  0.00000000E+00  0.00000000E+00
  0.00000000E+00
Integer atomic weights                     I   N=           6
          12          32           1           1           1           1
Real atomic weights                        R   N=           6
  1.20000000E+01  3.19720718E+01  1.00782504E+00  1.00782504E+00  1.00782504E+00
  1.00782504E+00
Atom fragment info                         I   N=           6
           0           0           0           0           0           0
Atom residue num                           I   N=           6
           0           0           0           0           0           0
Nuclear spins                              I   N=           6
           0           0           1           1           1           1
Nuclear ZEff                               R   N=           6
 -3.60000000E+00 -1.36000000E+01 -1.00000000E+00 -1.00000000E+00 -1.00000000E+00
 -1.00000000E+00
Nuclear QMom                               R   N=           6
  0.00000000E+00  0.00000000E+00  0.00000000E+00  0.00000000E+00  0.00000000E+00
  0.00000000E+00
Nuclear GFac                               R   N=           6
  0.00000000E+00  0.00000000E+00  2.79284600E+00  2.79284600E+00  2.79284600E+00
  2.79284600E+00
MicOpt                                     I   N=           6
          -1          -1          -1          -1          -1          -1
Number of contracted shells                I               17
Number of primitive shells                 I               44
Pure/Cartesian d shells                    I                1
Pure/Cartesian f shells                    I                0
Highest angular momentum                   I                2
Largest degree of contraction              I                6
Shell types                                I   N=          17
           0          -1          -1           2           0          -1
          -1          -1           2           0           0           0
           0           0           0           0           0
Number of primitives per shell             I   N=          17
           6           3           1           1           6           6
           3           1           1           3           1           3
           1           3           1           3           1
Shell to atom map                          I   N=          17
           1           1           1           1           2           2
           2           2           2           3           3           4
           4           5           5           6           6
Primitive exponents                        R   N=          44
  3.04752488E+03  4.57369518E+02  1.03948685E+02  2.92101553E+01  9.28666296E+00
  3.16392696E+00  7.86827235E+00  1.88128854E+00  5.44249258E-01  1.68714478E-01
  8.00000000E-01  2.19171000E+04  3.30149000E+03  7.54146000E+02  2.12711000E+02
  6.79896000E+01  2.30515000E+01  4.23735000E+02  1.00710000E+02  3.21599000E+01
  1.18079000E+01  4.63110000E+00  1.87025000E+00  2.61584000E+00  9.22167000E-01
  3.41287000E-01  1.17167000E-01  6.50000000E-01  1.87311370E+01  2.82539436E+00
  6.40121692E-01  1.61277759E-01  1.87311370E+01  2.82539436E+00  6.40121692E-01
  1.61277759E-01  1.87311370E+01  2.82539436E+00  6.40121692E-01  1.61277759E-01
  1.87311370E+01  2.82539436E+00  6.40121692E-01  1.61277759E-01
Contraction coefficients                   R   N=          44
  1.83473713E-03  1.40373228E-02  6.88426223E-02  2.32184443E-01  4.67941348E-01
  3.62311985E-01 -1.19332420E-01 -1.60854152E-01  1.14345644E+00  1.00000000E+00
  1.00000000E+00  1.86924085E-03  1.42303065E-02  6.96962317E-02  2.38487108E-01
  4.83307220E-01  3.38074154E-01 -2.37677050E-03 -3.16930067E-02 -1.13317024E-01
  5.60900118E-02  5.92255124E-01  4.55006095E-01 -2.50373114E-01  6.69567631E-02
  1.05450627E+00  1.00000000E+00  1.00000000E+00  3.34946043E-02  2.34726953E-01
  8.13757326E-01  1.00000000E+00  3.34946043E-02  2.34726953E-01  8.13757326E-01
  1.00000000E+00  3.34946043E-02  2.34726953E-01  8.13757326E-01  1.00000000E+00
  3.34946043E-02  2.34726953E-01  8.13757326E-01  1.00000000E+00
P(S=P) Contraction coefficients            R   N=          44
  0.00000000E+00  0.00000000E+00  0.00000000E+00  0.00000000E+00  0.00000000E+00
  0.00000000E+00  6.89990666E-02  3.16423961E-01  7.44308291E-01  1.00000000E+00
  0.00000000E+00  0.00000000E+00  0.00000000E+00  0.00000000E+00  0.00000000E+00
  0.00000000E+00  0.00000000E+00  4.06100998E-03  3.06812999E-02  1.30451999E-01
  3.27204999E-01  4.52850998E-01  2.56041999E-01 -1.45104895E-02  3.10262776E-01
  7.54482456E-01  1.00000000E+00  0.00000000E+00  0.00000000E+00  0.00000000E+00
  0.00000000E+00  0.00000000E+00  0.00000000E+00  0.00000000E+00  0.00000000E+00
  0.00000000E+00  0.00000000E+00  0.00000000E+00  0.00000000E+00  0.00000000E+00
  0.00000000E+00  0.00000000E+00  0.00000000E+00  0.00000000E+00
Coordinates of each shell                  R   N=          51
 -2.17601612E+00  3.58587812E-02 -5.51699180E-08 -2.17601612E+00  3.58587812E-02
 -5.51699180E-08 -2.17601612E+00  3.58587812E-02 -5.51699180E-08 -2.17601612E+00
  3.58587812E-02 -5.51699180E-08  1.25019710E+00 -1.63597480E-01 -1.52974921E-07
  1.25019710E+00 -1.63597480E-01 -1.52974921E-07  1.25019710E+00 -1.63597480E-01
 -1.52974921E-07  1.25019710E+00 -1.63597480E-01 -1.52974921E-07  1.25019710E+00
 -1.63597480E-01 -1.52974921E-07  1.69523645E+00  2.33014102E+00  2.15727807E-06
  1.69523645E+00  2.33014102E+00  2.15727807E-06 -2.88099272E+00  9.86671461E-01
 -1.68662646E+00 -2.88099272E+00  9.86671461E-01 -1.68662646E+00 -2.88030819E+00
 -1.90101245E+00 -3.55825184E-05 -2.88030819E+00 -1.90101245E+00 -3.55825184E-05
 -2.88099243E+00  9.86606967E-01  1.68666266E+00 -2.88099243E+00  9.86606967E-01
  1.68666266E+00
Constraint Structure                       R   N=          18
 -2.17601612E+00  3.58587812E-02 -5.51699180E-08  1.25019710E+00 -1.63597480E-01
 -1.52974921E-07  1.69523645E+00  2.33014102E+00  2.15727807E-06 -2.88099272E+00
  9.86671461E-01 -1.68662646E+00 -2.88030819E+00 -1.90101245E+00 -3.55825184E-05
 -2.88099243E+00  9.86606967E-01  1.68666266E+00
Num ILSW                                   I              100
ILSW                                       I   N=         100
           0           1           0           0           2           0
           0           0           0           0           0          -1
           0           0           0           0           0           0
           0           0           0           0           1           0
           1           0           0           0           0           0
           0           0      100000           0          -1           0
           0           0           0           0           0           0
           0           0           0           1           1           0
           0           0           1           0           0           0
           0           0           4          40           0           0
           0           0           0           0           0           0
           0           0           0           0           0           0
           0           0           0           0           0           0
           0           0           0           0           0           0
           0           0           0           0           0           0
           0           0           0           0           0           0
           0           0           0           0
Num RLSW                                   I               40
RLSW                                       R   N=          40
  1.00000000E+00  1.00000000E+00  1.00000000E+00  1.00000000E+00  1.00000000E+00
  0.00000000E+00  0.00000000E+00  1.00000000E+00  0.00000000E+00  0.00000000E+00
  0.00000000E+00  0.00000000E+00  1.00000000E+00  0.00000000E+00  0.00000000E+00
  0.00000000E+00  0.00000000E+00  1.00000000E+00  0.00000000E+00  0.00000000E+00
  0.00000000E+00  0.00000000E+00  1.00000000E+00  0.00000000E+00  0.00000000E+00
  0.00000000E+00  0.00000000E+00  1.00000000E+00  0.00000000E+00  0.00000000E+00
  0.00000000E+00  0.00000000E+00  0.00000000E+00  0.00000000E+00  0.00000000E+00
  0.00000000E+00  0.00000000E+00  0.00000000E+00  1.00000000E+00  1.00000000E+00
MxBond                                     I                4
NBond                                      I   N=           6
           4           2           1           1           1           1
IBond                                      I   N=          24
           2           4           5           6           1           3
           0           0           2           0           0           0
           1           0           0           0           1           0
           0           0           1           0           0           0
RBond                                      R   N=          24
  1.00000000E+00  1.00000000E+00  1.00000000E+00  1.00000000E+00  1.00000000E+00
  1.00000000E+00  0.00000000E+00  0.00000000E+00  1.00000000E+00  0.00000000E+00
  0.00000000E+00  0.00000000E+00  1.00000000E+00  0.00000000E+00  0.00000000E+00
  0.00000000E+00  1.00000000E+00  0.00000000E+00  0.00000000E+00  0.00000000E+00
  1.00000000E+00  0.00000000E+00  0.00000000E+00  0.00000000E+00
Virial Ratio                               R      2.000441296915077E+00
SCF Energy                                 R     -4.376999856832574E+02
MP2 Energy                                 R     -4.379526684319727E+02
Total Energy                               R     -4.379526684319727E+02
Post-SCF wavefunction norm                 R      1.480256808856943E+00
RMS Force                                  R      2.320552610858147E-07
RMS Density                                R      6.323534919549985E-10
External E-field                           R   N=          35
  0.00000000E+00  0.00000000E+00  0.00000000E+00  0.00000000E+00  0.00000000E+00
  0.00000000E+00  0.00000000E+00  0.00000000E+00  0.00000000E+00  0.00000000E+00
  0.00000000E+00  0.00000000E+00  0.00000000E+00  0.00000000E+00  0.00000000E+00
  0.00000000E+00  0.00000000E+00  0.00000000E+00  0.00000000E+00  0.00000000E+00
  0.00000000E+00  0.00000000E+00  0.00000000E+00  0.00000000E+00  0.00000000E+00
  0.00000000E+00  0.00000000E+00  0.00000000E+00  0.00000000E+00  0.00000000E+00
  0.00000000E+00  0.00000000E+00  0.00000000E+00  0.00000000E+00  0.00000000E+00
IOpCl                                      I                0
IROHF                                      I                0
Alpha Orbital Energies                     R   N=          42
 -9.19403839E+01 -1.12602218E+01 -8.95230030E+00 -6.63543171E+00 -6.63382446E+00
 -6.63147261E+00 -1.03975616E+00 -8.68786914E-01 -6.09368545E-01 -5.92400776E-01
 -5.31137708E-01 -4.59453637E-01 -3.56262259E-01  1.74960617E-01  2.28251235E-01
  2.74957084E-01  2.92083211E-01  2.96800509E-01  5.23604785E-01  5.33370478E-01
  5.52965290E-01  5.60033796E-01  7.11970284E-01  7.28479966E-01  8.07785648E-01
  9.61752610E-01  1.03387726E+00  1.09031825E+00  1.11810932E+00  1.15850233E+00
  1.16825376E+00  1.17612452E+00  1.25416607E+00  1.45051892E+00  1.47343461E+00
  1.98571729E+00  2.00114933E+00  2.47119930E+00  2.55823741E+00  2.56464686E+00
  4.31607197E+00  4.59935480E+00
Alpha MO coefficients                      R   N=        1764
 -8.12776358E-06  3.22162584E-05  1.16160295E-04 -8.01476103E-06 -3.95141828E-10
  2.75081546E-04 -1.89269833E-04 -1.24890719E-05  2.21320789E-09 -4.20283701E-05
 -1.49617557E-05 -2.48406697E-05 -6.50331099E-07 -8.23858777E-11  2.02834060E-10
  9.96255469E-01  1.42562398E-02 -5.84427484E-05  6.55570299E-05  1.17883009E-10
 -1.99556390E-02  8.95154946E-05 -6.62171824E-05 -1.77294625E-10  2.85640149E-03
 -1.73562073E-04  2.39167842E-04  4.65116878E-11  6.89929356E-03  6.90043966E-03
  6.88659377E-03  4.26069745E-07  1.36685603E-10  3.83901701E-11  1.54334258E-04
 -4.03160036E-04 -1.78875839E-05 -2.33674785E-04 -3.08104527E-05 -2.08156650E-04
 -1.78876041E-05 -2.33678310E-04  9.95746291E-01  2.81246161E-02  4.63329069E-04
 -7.22028504E-05 -1.73855164E-09 -1.33752866E-02 -6.59344399E-04  1.66317943E-04
  1.69195334E-09 -2.10871576E-03 -1.78849822E-03 -1.78779561E-03 -2.15066479E-06
  8.06829353E-11 -5.60199129E-10  1.04355692E-06 -2.74898358E-05  4.98774770E-05
 -7.33666619E-07  6.47894689E-12  3.67781480E-04 -4.92805568E-04  7.41209518E-06
 -3.54030638E-11  2.55072574E-03 -1.44715824E-03  3.80257665E-04  1.16681144E-10
 -1.52028567E-04 -9.70844610E-05 -1.76364696E-04  2.39197051E-06  7.73393372E-11
 -2.53366818E-11 -1.12099277E-04 -3.16466221E-04  9.78611251E-05  2.17218695E-03
  1.03706707E-04  2.30515914E-03  9.78626915E-05  2.17218607E-03 -8.07440058E-05
  5.22833950E-04 -1.87042755E-04  1.74552594E-05  2.15168614E-09 -6.45335536E-04
  5.97949387E-04  8.28558112E-05 -1.22515078E-08 -4.69642851E-04  4.80595328E-05
  1.06009158E-04  4.13122417E-05  3.19640286E-10 -1.06201915E-09 -2.81776392E-01
  1.03021566E+00 -3.92764962E-03  4.94277185E-03  1.03946572E-08  2.44756629E-02
 -1.05457695E-03  1.06880968E-03  2.27151284E-09 -7.95563105E-03  9.78012976E-04
 -1.49222948E-03 -7.79341296E-10 -1.15678767E-03 -1.25276910E-03 -1.70932309E-03
  1.10207037E-04 -5.16075800E-10  6.59505318E-10 -4.62602269E-04  2.04885532E-03
 -5.57274179E-05  8.57818850E-04  4.12789282E-05  6.42671270E-04 -5.57275142E-05
  8.57837809E-04 -4.53885048E-06 -8.69673589E-04  3.65908145E-04  1.59860087E-05
  1.64438447E-09  2.76329561E-03  8.01822650E-04 -7.10499099E-04 -1.03898712E-08
  6.29332063E-04 -6.84138702E-05 -1.88871978E-04 -2.60721510E-04  6.93466769E-11
  3.57095513E-09  4.89094064E-04 -1.80825579E-03  6.07273351E-01  7.85603244E-01
  1.07594795E-06  1.39058563E-03  1.47776256E-02  1.83334964E-02  2.55849503E-08
 -2.62606175E-03 -3.15561590E-03 -5.68421041E-03 -7.10760631E-09 -1.36018363E-03
  7.36447564E-04 -2.93552946E-04  8.74218238E-05 -3.95238275E-11  2.39627487E-09
 -1.14648378E-03  2.55480313E-03 -1.46877468E-04 -6.73871681E-05 -1.21303737E-04
 -1.88694223E-03 -1.46878155E-04 -6.74037972E-05  3.01924267E-05 -9.45225434E-04
  4.24189486E-04 -5.44373274E-05 -7.48447591E-10  2.67830908E-03  7.08998208E-04
  2.86080368E-04  5.46067370E-09  7.36614734E-04 -2.13518874E-04 -1.55837857E-04
  1.19357873E-04  4.29607573E-12 -1.55308430E-09 -2.00799102E-03  7.63372203E-03
  7.85680111E-01 -6.07595338E-01 -8.39423976E-07 -4.72215140E-03  1.82021284E-02
 -1.34855557E-02 -1.86294728E-08  4.72921859E-04 -3.95965253E-03  3.54242329E-03
  4.53887693E-09  5.38811901E-04  1.09052570E-03  1.76768488E-03  5.52548965E-04
  1.25583719E-09 -1.42772643E-09  4.89039022E-04 -9.51124755E-04 -1.49368476E-04
 -1.15992490E-03 -1.90333167E-04 -2.24265757E-04 -1.49369499E-04 -1.15991501E-03
 -5.27603240E-11 -3.68852392E-10 -7.51197625E-12  4.39657882E-11  4.44136897E-06
  2.32856082E-09  1.99483970E-09  5.02920963E-10 -4.63543624E-04  2.31083029E-10
  2.32238372E-09 -2.61662507E-09  5.29338802E-10 -2.39752332E-04 -3.65409565E-05
  1.13394302E-09 -3.78170554E-09  5.62038756E-09 -1.36582009E-06  9.93913507E-01
  3.14113449E-09  4.06751643E-10 -2.72444522E-08  2.02222637E-02 -9.27710888E-09
  1.21794787E-09  4.91769244E-10 -4.68507980E-03 -5.08157707E-10 -1.72297555E-09
  1.40893840E-09  4.02698576E-10 -3.73979416E-04  3.83586189E-04 -5.44655369E-10
  7.82298661E-09  2.45740378E-05 -7.80689372E-04  4.41215668E-10 -1.67974334E-08
 -2.45745624E-05  7.80707423E-04 -1.45717158E-01  2.68202036E-01  4.74610367E-02
 -4.60007213E-03 -2.37542597E-08  2.74916981E-01  1.81671815E-02  1.22439298E-03
  9.59162845E-08  1.29540864E-02  6.23980451E-03  5.32979117E-03 -1.04649481E-03
 -1.20113597E-09 -1.48717604E-08  4.87050843E-02 -2.25953168E-01  4.35608984E-02
 -2.17439280E-02 -2.34640285E-08  4.31530624E-01 -9.92424022E-02  5.05577313E-02
  5.59288485E-08  1.47483949E-01 -5.33909661E-05  4.80696081E-03 -3.04425416E-09
  3.22770926E-02  1.18025411E-02 -1.24604255E-02  2.72371743E-04  2.66894794E-09
  2.87846645E-08  8.66210049E-02  2.70303877E-02  8.68714504E-02  1.27456729E-02
  8.92513480E-02  1.63873141E-02  8.68714315E-02  1.27455136E-02  1.26544696E-01
 -2.38630997E-01  1.30748746E-01  7.09897208E-03 -3.04367563E-09 -2.76875469E-01
  3.64114124E-02  2.34814110E-03 -3.99347346E-08  1.08807419E-02 -1.38533585E-02
 -1.32840418E-02 -2.94271765E-04 -1.78205587E-09  4.00495485E-09  4.94611023E-02
 -2.30033970E-01 -3.23983822E-02 -3.77592596E-02 -4.26685242E-08  4.59454870E-01
  7.74342168E-02  9.09104166E-02  1.05659677E-07  2.29910683E-01  2.11742209E-04
  1.04504459E-02  2.02782974E-08 -1.58066003E-02  3.77460403E-02 -4.45564867E-03
  8.90813944E-03  6.53183284E-09  4.51934243E-08  1.39241015E-01  6.59793277E-02
 -1.14467387E-01 -4.52923487E-02 -1.19981012E-01 -4.80599400E-02 -1.14467438E-01
 -4.52923261E-02 -6.14646446E-03  1.54842577E-02 -9.41513279E-02  3.64672462E-01
 -2.58611514E-06 -4.07045911E-03 -5.69786585E-02  2.05884925E-01 -1.27620702E-06
 -8.61224588E-03 -1.73747641E-02  2.55330390E-02 -9.52320524E-03  1.12966667E-07
 -1.53688281E-06 -1.09162471E-02  5.04592545E-02 -3.91643745E-02 -1.09118177E-01
  2.50648199E-07 -1.14508092E-01  9.74414601E-02  2.74269408E-01 -6.43953979E-07
 -7.39456635E-02  1.30272137E-03  6.41178410E-02 -2.34445857E-07 -2.94624234E-02
  4.43301745E-02 -8.41964721E-03 -8.13860025E-03  1.05268959E-07 -1.83554601E-08
  1.38079998E-01  1.31296959E-01  1.31979645E-01  8.97466192E-02 -1.88060315E-01
 -1.26189318E-01  1.31969935E-01  8.97398458E-02 -6.28289722E-08  1.48523584E-07
 -8.04901158E-07  1.83879881E-06  4.33578432E-01  8.37139174E-08 -6.45635480E-07
  1.13321462E-06  2.32801034E-01 -7.48598296E-08 -1.48862889E-06  1.56092978E-06
 -1.85815081E-08 -1.58375163E-02  2.80875637E-02 -8.08771718E-08  3.64026490E-07
 -3.35083095E-07 -8.44993543E-07 -5.95742996E-02 -8.86570617E-07  8.30582290E-07
  2.11859088E-06  1.51660321E-01 -2.75698741E-07  1.70859377E-08  7.46498961E-07
  5.29669892E-02 -2.43498265E-07  3.00783514E-07 -1.35094528E-08 -4.46047124E-08
 -2.07568273E-02  4.94576084E-03  1.16661361E-06  7.67652104E-07 -2.24519293E-01
 -1.62999959E-01 -5.71097934E-06 -4.13906334E-06  2.24525584E-01  1.63004242E-01
  6.38469602E-03 -4.02123711E-03 -2.77153339E-01 -2.27044842E-01 -5.44548654E-07
 -7.14083308E-02 -1.77003887E-01 -1.27832408E-01 -2.22933327E-07 -2.31637323E-02
  2.50856019E-02 -4.04611256E-03  1.57198544E-02  1.86549079E-08  8.67875091E-07
 -5.54087186E-03  2.48877793E-02 -1.29694139E-01 -9.76171496E-02  6.97287949E-09
 -5.96875108E-02  3.31875671E-01  2.51994661E-01 -2.29411201E-08 -2.87007328E-02
  6.78283946E-02  5.97274109E-02 -5.27646473E-08 -6.30068348E-02  6.84405819E-02
 -5.12416951E-03  3.32160803E-02  7.32427786E-08  1.36149239E-07  2.00076468E-01
  2.19456554E-01 -1.40738158E-02 -1.11367524E-02  2.07745650E-01  1.79445483E-01
 -1.40695988E-02 -1.11333211E-02 -1.53685368E-02  2.08816440E-02  2.31921552E-01
 -1.21951269E-01 -2.34534853E-07  9.49822947E-02  1.64769099E-01 -5.39540698E-02
  1.22904583E-07  1.75685908E-02  8.56225883E-04 -1.58635089E-02  1.15035189E-02
  2.06973735E-09  4.91420114E-07 -2.44670307E-02  1.16655650E-01  1.46159056E-01
 -1.51412397E-01 -4.34741079E-08 -2.56618241E-01 -3.77776129E-01  3.95119908E-01
  1.04203639E-07 -3.18880945E-01 -1.41797243E-01  1.52608932E-01  6.29719901E-09
  3.19930443E-02  2.65225480E-02 -3.44651282E-02  8.60387568E-04  1.97718549E-08
  1.15796346E-07  1.37279575E-01  1.76432353E-01 -8.47378813E-02 -9.26685782E-02
  4.32058796E-02  5.14986634E-02 -8.47352606E-02 -9.26661594E-02  7.20890101E-09
 -4.18307975E-08  1.96893727E-08 -9.54768788E-08 -1.13477159E-01  4.58904413E-08
  3.42528404E-08 -6.71598260E-08 -5.40230385E-02 -5.58295571E-09  5.07208979E-07
 -5.15829827E-07 -2.11292215E-08  2.32995834E-02 -1.09686147E-02 -1.15051268E-08
  5.77373542E-08  5.16882523E-08  2.46195519E-07 -2.53428738E-01 -1.12270713E-07
 -1.31235563E-07 -6.58888011E-07  6.76838519E-01 -2.94481183E-07 -1.20947043E-07
 -6.05927759E-07  4.49390226E-01 -1.21638435E-08  6.42019312E-08 -4.00706018E-08
  4.32535380E-08 -1.78732407E-03  1.18911463E-02  9.50404666E-08  3.88334819E-07
  8.78558382E-02  1.22266951E-01  1.86393995E-06  2.67808998E-06 -8.78576961E-02
 -1.22269680E-01 -1.02043862E-01  9.51294389E-02  1.27954697E-01 -1.45067854E-02
 -1.40476931E-06  1.47415795E+00  2.74656942E-01 -1.31886952E-01 -7.85823952E-06
 -2.33286325E-03 -7.95053245E-03 -8.20364965E-03  1.16130267E-02  4.36311319E-08
  2.29276791E-07  3.64671782E-03 -4.62502894E-03 -9.33366352E-02 -8.53134264E-02
 -1.92109868E-07  7.75893756E-02  2.36732799E-01  2.27097236E-01  4.78765246E-07
 -2.81666517E-03  8.86386745E-01  7.13363373E-01  2.30406017E-06  9.58681218E-02
 -8.10094018E-02 -1.27117603E-03 -1.73033770E-02  2.52469373E-07  2.71137934E-08
 -1.12312678E-01 -9.96304732E-01 -1.56327671E-02 -4.10150037E-01  1.96308584E-02
 -3.78532364E-01 -1.56314156E-02 -4.10134871E-01 -8.54654661E-02  6.47261563E-02
  1.61349886E-01  2.37899853E-02  3.26841249E-06  1.26760213E+00  6.85209046E-01
  1.92537149E-01  1.88459244E-05 -1.58808584E-02  2.73511116E-03 -6.14035486E-03
 -1.06802024E-02 -2.92992406E-10 -2.03894821E-07 -3.07538837E-02  1.54911352E-01
 -4.78502399E-02  1.00234350E-01  1.97997965E-07 -3.03470648E-01  1.17842944E-01
 -2.84394818E-01 -4.20936290E-07 -1.48616912E+00  7.95033229E-01 -1.05104234E+00
 -4.65305212E-06  4.26317990E-02  2.40267515E-02 -7.92923575E-02  1.34607370E-02
 -6.67940756E-07 -6.38283897E-08  8.66383221E-02  1.52899452E+00  9.87472935E-04
 -2.04435126E-01 -1.31371290E-02 -5.95744002E-02  9.85469667E-04 -2.04468394E-01
 -8.43039691E-02  2.49480167E-02 -2.89247302E-01 -2.72743183E-02  2.32077166E-06
  1.83626627E+00 -9.83296651E-01 -1.56414054E-01  1.31318494E-05  4.06266457E-03
 -1.65900462E-02 -1.40103227E-02 -8.87619449E-03  6.45945868E-08 -2.86355167E-07
  1.71081732E-02 -4.73512459E-02  6.06914422E-02  2.77005091E-02  1.45591176E-08
  2.91223259E-01 -1.62459043E-01 -7.17490705E-02  1.32730739E-07 -5.61786492E-02
 -5.38892825E-01 -2.17178734E-01 -3.05324724E-06 -4.01993464E-02  6.85456634E-02
  1.10235840E-02  2.05255927E-02 -5.73381027E-07 -3.16300731E-07  9.05117217E-02
  3.16336273E-01  4.14011749E-03 -9.98269176E-01 -3.79752923E-02 -1.36171309E+00
  4.13823426E-03 -9.98303303E-01 -6.55928585E-03 -4.52012067E-03 -4.79768077E-02
  2.89432169E-01 -4.83262171E-06  1.72288046E-01 -1.52143330E-01  1.48534228E+00
 -2.45904099E-05  1.27261157E-03  7.14402560E-03 -1.38717993E-02  1.42327015E-02
 -1.53438913E-07  8.94705215E-07  7.00697085E-03 -2.04445522E-02 -2.22727019E-03
 -3.07421963E-02  1.44838548E-07  1.14425697E-01  1.40310026E-02  1.21643330E-01
 -8.63255849E-07  3.26027053E-02 -1.59770018E-01 -2.96726624E-01  6.04946365E-06
 -1.12658239E-02  3.65553365E-02 -5.84890155E-03 -6.75014290E-02  1.31874860E-06
  1.80028079E-06 -1.44710374E-02 -4.74926269E-02 -4.37651202E-02 -1.03719476E+00
  8.14349330E-02  1.66942571E+00 -4.37609851E-02 -1.03708456E+00 -1.20533078E-06
  1.13263355E-06 -6.53158200E-07 -4.14534064E-06 -3.05715259E-01  2.03485739E-05
 -6.28564376E-07 -1.99244792E-05 -1.52459159E+00 -3.02030513E-07 -6.72937546E-07
  7.89575297E-07 -5.83043344E-07 -1.14418418E-02  1.30552823E-02 -6.16998346E-07
  2.26686355E-06  6.68818608E-07  2.90220625E-06  9.84545699E-03 -8.71162925E-06
 -2.15689425E-06 -9.16838513E-06 -5.33809131E-02 -1.37936029E-05  1.49521771E-06
 -1.47430910E-05  3.36678651E-01 -8.30585630E-07 -1.48778596E-07 -1.89315949E-07
  1.51543206E-06  7.17082149E-02  2.22567802E-02  3.00213687E-06  3.11766957E-05
 -6.11171231E-02 -1.60941197E+00 -3.52760310E-06 -7.07931912E-05  6.11204659E-02
  1.60945755E+00  1.47896943E-02 -5.10421194E-02 -7.94507113E-02  4.32953858E-02
  2.18919204E-06 -4.62479626E-02 -5.22227704E-01  7.82955302E-02  3.23555453E-06
  1.97764797E-02 -3.07744649E-03 -2.04265129E-02  9.73493333E-03  2.03094915E-07
  8.48205833E-07 -1.86598904E-02 -2.09340811E-02  1.28169957E-01  1.97765714E-01
 -1.19149851E-06 -5.36898457E-01 -5.06136840E-01 -8.47879322E-01  4.83252941E-06
  1.39430505E+00  1.32649950E-01  1.35604710E+00 -5.02825026E-06 -2.96022852E-02
 -1.97739359E-01  9.11305369E-02 -4.56727965E-02 -5.06375154E-07  1.29401394E-07
 -2.72050708E-01 -3.69264608E-01 -7.91677379E-02 -2.91691811E-01  2.89938387E-02
  1.60126337E-01 -7.91656134E-02 -2.91691403E-01 -6.73429098E-03  4.17867894E-02
 -1.44375739E-01 -3.86954601E-03  2.15285659E-06 -7.71911985E-02 -4.61257846E-01
 -5.65547333E-02  2.25273843E-06 -2.86843663E-02  1.60187748E-04  2.02344797E-02
  1.32277650E-02  1.94890856E-07 -3.12827058E-07 -5.41068783E-02  2.97009314E-02
  6.83123721E-02 -1.53936626E-01 -1.61808419E-06 -1.31678443E+00 -2.40587291E-01
  6.09441913E-01  6.60406648E-06  2.43855081E+00 -2.48847183E-01 -1.79443399E-01
 -6.87299646E-06 -1.83570678E-01 -8.58585872E-02  3.00605743E-02 -3.23555989E-02
 -5.68308291E-07 -3.66075297E-07 -5.01510647E-03 -6.75968481E-01 -4.20984215E-03
 -2.48043871E-01 -1.95365186E-02 -4.47216473E-01 -4.20978075E-03 -2.48055286E-01
  3.16291017E-02 -2.09391642E-01  7.90283292E-02  1.93321022E-02 -8.82105410E-07
  4.45445370E-01 -4.08054810E-02 -8.32378632E-03 -5.45661624E-07  9.96863376E-02
 -5.55162341E-02 -4.94693128E-02 -1.50688708E-02 -2.02411841E-07 -5.56475170E-07
  1.96326710E-02  1.61282853E-02  2.52253433E-01 -7.69808488E-02  4.19652641E-06
  5.34572887E-01 -1.05498820E+00  3.30173803E-01 -1.71521868E-05 -1.19254904E+00
  1.38003636E+00 -6.42971938E-01  1.79674299E-05  1.49800342E-01  6.94691691E-02
 -5.77815005E-02  5.53465855E-03  5.22780302E-07 -1.59460543E-07  5.51964215E-02
  3.99608547E-01 -4.51996405E-02  2.83042866E-01 -1.24430549E-01  2.67076468E-01
 -4.52026892E-02  2.83041608E-01 -3.81662219E-07  2.84161254E-06 -2.39656961E-06
 -5.26963032E-07  4.58613231E-02 -7.44029445E-06 -4.31458192E-06  3.61679301E-07
  5.90579242E-02 -1.48837512E-06  1.51506970E-06 -4.41059749E-08  4.23223829E-07
 -7.70087086E-03 -1.44607141E-02 -6.07640843E-07 -3.62439782E-07 -2.76824986E-06
  7.99591142E-07  2.92455692E-01 -1.65011016E-05  1.19366139E-05 -3.97912190E-06
 -1.19778689E+00  3.72150833E-05 -2.09068303E-05  1.47569390E-05  1.27084140E+00
 -3.17217787E-06 -2.47880212E-06  1.46058674E-06 -6.35775832E-07  2.53186098E-02
 -2.22080434E-02 -2.88027879E-06 -1.24918297E-05  4.49630119E-02  2.48253897E-01
  2.97898641E-06 -1.29772096E-07 -4.49636133E-02 -2.48272403E-01  2.49482015E-04
 -4.85061091E-02 -3.67582573E-02 -7.05434581E-01 -1.21819194E-05  1.64107821E-01
  4.87477871E-02  1.24308030E+00  1.91592010E-05  1.08153285E-02  5.89324539E-02
 -7.99905689E-02  7.42912188E-02  9.77854182E-07  3.14306639E-06  6.92161296E-03
 -3.37817219E-03  2.75616739E-03 -2.94726577E-02 -6.63151201E-08  1.71626881E-01
 -1.97553295E-02  1.30495833E-01  5.66035283E-07 -4.62656835E-01  3.14055459E-02
 -6.69977512E-01 -6.25420862E-06  2.49062242E-03  3.72173222E-02 -1.39760377E-02
 -2.95317640E-01 -3.84346589E-06  7.79077505E-07 -1.34917768E-01  4.71141773E-01
 -2.44335672E-01  3.51148247E-02  4.55749990E-01 -7.24141496E-02 -2.44333259E-01
  3.51173005E-02  3.69066568E-08  5.46972584E-07 -5.88600201E-07  1.15847544E-05
 -6.85168441E-01 -2.93582802E-06 -9.43252789E-07 -2.20444276E-05  1.30067555E+00
 -2.96783541E-07  3.19804901E-06 -2.78385572E-06 -1.18479499E-06  8.13308008E-02
 -8.66617569E-02 -1.43494296E-07 -2.12320528E-07 -1.20159749E-07  4.64059351E-08
  9.24033471E-03 -4.36067086E-06  7.90818339E-07 -8.30333122E-07 -1.56584418E-02
  1.14703105E-05 -1.99286726E-06  1.22988409E-05 -3.49735032E-01 -2.71012255E-07
 -1.86857049E-06  1.12636585E-06  5.10750159E-06 -3.14995528E-01 -8.12476441E-03
 -7.80706688E-07 -7.44842426E-06  4.21109087E-01  1.60865954E-02  2.05630509E-06
 -9.28080170E-07 -4.21110352E-01 -1.60877434E-02  2.83012208E-02 -1.30066588E-01
 -8.52981864E-01  1.17651823E-02  2.04857721E-07  7.74763020E-02  1.94946069E+00
 -3.63180709E-02 -8.40820239E-07 -8.43872723E-02  2.49729225E-02  2.33367187E-02
  5.76170441E-04 -5.92012271E-08  1.31806523E-08  1.56038268E-02 -2.19443588E-02
  1.09643126E-01  1.65767879E-02  5.01918155E-09  3.67328987E-01 -3.26976423E-01
 -7.09011665E-02 -2.46257870E-08 -1.42023908E+00  1.16463151E+00  2.33860730E-02