14273993                                                                
Freq      RMP2-FC                                                     6-31G(d)            
Number of atoms                            I               18
Info1-9                                    I   N=           9
          30          28        1002           0           0         100
           6           2           1
Charge                                     I                0
Multiplicity                               I                1
Number of electrons                        I              130
Number of alpha electrons                  I               65
Number of beta electrons                   I               65
Number of basis functions                  I              221
Number of independent functions            I              221
Number of point charges in /Mol/           I                0
Number of translation vectors              I                0
Atomic numbers                             I   N=          18
          17          17          17          16           8           8
           6           6           6           6           6           6
           6           1           1           1           1           1
Nuclear charges                            R   N=          18
  1.70000000E+01  1.70000000E+01  1.70000000E+01  1.60000000E+01  8.00000000E+00
  8.00000000E+00  6.00000000E+00  6.00000000E+00  6.00000000E+00  6.00000000E+00
  6.00000000E+00  6.00000000E+00  6.00000000E+00  1.00000000E+00  1.00000000E+00
  1.00000000E+00  1.00000000E+00  1.00000000E+00
Current cartesian coordinates              R   N=          54
  5.77931410E+00 -6.00889369E-05  4.06897293E-01  2.05841295E+00  2.74033108E+00
 -2.54301975E+00  2.05834672E+00 -2.74004777E+00 -2.54332677E+00  5.35822733E-01
 -1.06143609E-04  2.13904543E+00  9.85894607E-01  2.42813243E+00  3.38253331E+00
  9.85892412E-01 -2.42847344E+00  3.38228144E+00 -2.55269768E+00 -3.87853799E-05
  8.57753930E-01  2.66277589E+00  3.67992933E-05 -7.50488503E-01 -3.74819854E+00
 -2.31282642E+00  4.16283319E-01 -3.74817904E+00  2.31279427E+00  4.16465922E-01
 -6.20512437E+00 -2.29090776E+00 -5.37072019E-01 -6.20510472E+00  2.29097115E+00
 -5.36892474E-01 -7.42446405E+00  5.61316688E-05 -1.02570507E+00 -2.78437542E+00
 -4.07033552E+00  8.54712321E-01 -2.78434808E+00  4.07026203E+00  8.55042709E-01
 -7.17282953E+00 -4.06784441E+00 -8.88992554E-01 -7.17279412E+00  4.06794384E+00
 -8.88674408E-01 -9.34041166E+00  9.31792971E-05 -1.76676657E+00
Force Field                                I                0
Int Atom Types                             I   N=          18
           0           0           0           0           0           0
           0           0           0           0           0           0
           0           0           0           0           0           0
MM charges                                 R   N=          18
  0.00000000E+00  0.00000000E+00  0.00000000E+00  0.00000000E+00  0.00000000E+00
  0.00000000E+00  0.00000000E+00  0.00000000E+00  0.00000000E+00  0.00000000E+00
  0.00000000E+00  0.00000000E+00  0.00000000E+00  0.00000000E+00  0.00000000E+00
  0.00000000E+00  0.00000000E+00  0.00000000E+00
Integer atomic weights                     I   N=          18
          35          35          35          32          16          16
          12          12          12          12          12          12
          12           1           1           1           1           1
Real atomic weights                        R   N=          18
  3.49688527E+01  3.49688527E+01  3.49688527E+01  3.19720718E+01  1.59949146E+01
  1.59949146E+01  1.20000000E+01  1.20000000E+01  1.20000000E+01  1.20000000E+01
  1.20000000E+01  1.20000000E+01  1.20000000E+01  1.00782504E+00  1.00782504E+00
  1.00782504E+00  1.00782504E+00  1.00782504E+00
Atom fragment info                         I   N=          18
           0           0           0           0           0           0
           0           0           0           0           0           0
           0           0           0           0           0           0
Atom residue num                           I   N=          18
           0           0           0           0           0           0
           0           0           0           0           0           0
           0           0           0           0           0           0
Nuclear spins                              I   N=          18
           3           3           3           0           0           0
           0           0           0           0           0           0
           0           1           1           1           1           1
Nuclear ZEff                               R   N=          18
 -1.42400000E+01 -1.42400000E+01 -1.42400000E+01 -1.36000000E+01 -5.60000000E+00
 -5.60000000E+00 -3.60000000E+00 -3.60000000E+00 -3.60000000E+00 -3.60000000E+00
 -3.60000000E+00 -3.60000000E+00 -3.60000000E+00 -1.00000000E+00 -1.00000000E+00
 -1.00000000E+00 -1.00000000E+00 -1.00000000E+00
Nuclear QMom                               R   N=          18
 -8.16500000E+00 -8.16500000E+00 -8.16500000E+00  0.00000000E+00  0.00000000E+00
  0.00000000E+00  0.00000000E+00  0.00000000E+00  0.00000000E+00  0.00000000E+00
  0.00000000E+00  0.00000000E+00  0.00000000E+00  0.00000000E+00  0.00000000E+00
  0.00000000E+00  0.00000000E+00  0.00000000E+00
Nuclear GFac                               R   N=          18
  8.21874000E-01  8.21874000E-01  8.21874000E-01  0.00000000E+00  0.00000000E+00
  0.00000000E+00  0.00000000E+00  0.00000000E+00  0.00000000E+00  0.00000000E+00
  0.00000000E+00  0.00000000E+00  0.00000000E+00  2.79284600E+00  2.79284600E+00
  2.79284600E+00  2.79284600E+00  2.79284600E+00
MicOpt                                     I   N=          18
          -1          -1          -1          -1          -1          -1
          -1          -1          -1          -1          -1          -1
          -1          -1          -1          -1          -1          -1
Number of contracted shells                I               66
Number of primitive shells                 I              187
Pure/Cartesian d shells                    I                1
Pure/Cartesian f shells                    I                0
Highest angular momentum                   I                2
Largest degree of contraction              I                6
Shell types                                I   N=          66
           0          -1          -1          -1           2           0
          -1          -1          -1           2           0          -1
          -1          -1           2           0          -1          -1
          -1           2           0          -1          -1           2
           0          -1          -1           2           0          -1
          -1           2           0          -1          -1           2
           0          -1          -1           2           0          -1
          -1           2           0          -1          -1           2
           0          -1          -1           2           0          -1
          -1           2           0           0           0           0
           0           0           0           0           0           0
Number of primitives per shell             I   N=          66
           6           6           3           1           1           6
           6           3           1           1           6           6
           3           1           1           6           6           3
           1           1           6           3           1           1
           6           3           1           1           6           3
           1           1           6           3           1           1
           6           3           1           1           6           3
           1           1           6           3           1           1
           6           3           1           1           6           3
           1           1           3           1           3           1
           3           1           3           1           3           1
Shell to atom map                          I   N=          66
           1           1           1           1           1           2
           2           2           2           2           3           3
           3           3           3           4           4           4
           4           4           5           5           5           5
           6           6           6           6           7           7
           7           7           8           8           8           8
           9           9           9           9          10          10
          10          10          11          11          11          11
          12          12          12          12          13          13
          13          13          14          14          15          15
          16          16          17          17          18          18
Primitive exponents                        R   N=         187
  2.51801000E+04  3.78035000E+03  8.60474000E+02  2.42145000E+02  7.73349000E+01
  2.62470000E+01  4.91765000E+02  1.16984000E+02  3.74153000E+01  1.37834000E+01
  5.45215000E+00  2.22588000E+00  3.18649000E+00  1.14427000E+00  4.20377000E-01
  1.42657000E-01  7.50000000E-01  2.51801000E+04  3.78035000E+03  8.60474000E+02
  2.42145000E+02  7.73349000E+01  2.62470000E+01  4.91765000E+02  1.16984000E+02
  3.74153000E+01  1.37834000E+01  5.45215000E+00  2.22588000E+00  3.18649000E+00
  1.14427000E+00  4.20377000E-01  1.42657000E-01  7.50000000E-01  2.51801000E+04
  3.78035000E+03  8.60474000E+02  2.42145000E+02  7.73349000E+01  2.62470000E+01
  4.91765000E+02  1.16984000E+02  3.74153000E+01  1.37834000E+01  5.45215000E+00
  2.22588000E+00  3.18649000E+00  1.14427000E+00  4.20377000E-01  1.42657000E-01
  7.50000000E-01  2.19171000E+04  3.30149000E+03  7.54146000E+02  2.12711000E+02
  6.79896000E+01  2.30515000E+01  4.23735000E+02  1.00710000E+02  3.21599000E+01
  1.18079000E+01  4.63110000E+00  1.87025000E+00  2.61584000E+00  9.22167000E-01
  3.41287000E-01  1.17167000E-01  6.50000000E-01  5.48467166E+03  8.25234946E+02
  1.88046958E+02  5.29645000E+01  1.68975704E+01  5.79963534E+00  1.55396162E+01
  3.59993359E+00  1.01376175E+00  2.70005823E-01  8.00000000E-01  5.48467166E+03
  8.25234946E+02  1.88046958E+02  5.29645000E+01  1.68975704E+01  5.79963534E+00
  1.55396162E+01  3.59993359E+00  1.01376175E+00  2.70005823E-01  8.00000000E-01
  3.04752488E+03  4.57369518E+02  1.03948685E+02  2.92101553E+01  9.28666296E+00
  3.16392696E+00  7.86827235E+00  1.88128854E+00  5.44249258E-01  1.68714478E-01
  8.00000000E-01  3.04752488E+03  4.57369518E+02  1.03948685E+02  2.92101553E+01
  9.28666296E+00  3.16392696E+00  7.86827235E+00  1.88128854E+00  5.44249258E-01
  1.68714478E-01  8.00000000E-01  3.04752488E+03  4.57369518E+02  1.03948685E+02
  2.92101553E+01  9.28666296E+00  3.16392696E+00  7.86827235E+00  1.88128854E+00
  5.44249258E-01  1.68714478E-01  8.00000000E-01  3.04752488E+03  4.57369518E+02
  1.03948685E+02  2.92101553E+01  9.28666296E+00  3.16392696E+00  7.86827235E+00
  1.88128854E+00  5.44249258E-01  1.68714478E-01  8.00000000E-01  3.04752488E+03
  4.57369518E+02  1.03948685E+02  2.92101553E+01  9.28666296E+00  3.16392696E+00
  7.86827235E+00  1.88128854E+00  5.44249258E-01  1.68714478E-01  8.00000000E-01
  3.04752488E+03  4.57369518E+02  1.03948685E+02  2.92101553E+01  9.28666296E+00
  3.16392696E+00  7.86827235E+00  1.88128854E+00  5.44249258E-01  1.68714478E-01
  8.00000000E-01  3.04752488E+03  4.57369518E+02  1.03948685E+02  2.92101553E+01
  9.28666296E+00  3.16392696E+00  7.86827235E+00  1.88128854E+00  5.44249258E-01
  1.68714478E-01  8.00000000E-01  1.87311370E+01  2.82539436E+00  6.40121692E-01
  1.61277759E-01  1.87311370E+01  2.82539436E+00  6.40121692E-01  1.61277759E-01
  1.87311370E+01  2.82539436E+00  6.40121692E-01  1.61277759E-01  1.87311370E+01
  2.82539436E+00  6.40121692E-01  1.61277759E-01  1.87311370E+01  2.82539436E+00
  6.40121692E-01  1.61277759E-01
Contraction coefficients                   R   N=         187
  1.83295985E-03  1.40341988E-02  6.90973943E-02  2.37451980E-01  4.83033960E-01
  3.39855972E-01 -2.29739142E-03 -3.07137189E-02 -1.12528069E-01  4.50163278E-02
  5.89353363E-01  4.65206287E-01 -2.51828028E-01  6.15892514E-02  1.06018433E+00
  1.00000000E+00  1.00000000E+00  1.83295985E-03  1.40341988E-02  6.90973943E-02
  2.37451980E-01  4.83033960E-01  3.39855972E-01 -2.29739142E-03 -3.07137189E-02
 -1.12528069E-01  4.50163278E-02  5.89353363E-01  4.65206287E-01 -2.51828028E-01
  6.15892514E-02  1.06018433E+00  1.00000000E+00  1.00000000E+00  1.83295985E-03
  1.40341988E-02  6.90973943E-02  2.37451980E-01  4.83033960E-01  3.39855972E-01
 -2.29739142E-03 -3.07137189E-02 -1.12528069E-01  4.50163278E-02  5.89353363E-01
  4.65206287E-01 -2.51828028E-01  6.15892514E-02  1.06018433E+00  1.00000000E+00
  1.00000000E+00  1.86924085E-03  1.42303065E-02  6.96962317E-02  2.38487108E-01
  4.83307220E-01  3.38074154E-01 -2.37677050E-03 -3.16930067E-02 -1.13317024E-01
  5.60900118E-02  5.92255124E-01  4.55006095E-01 -2.50373114E-01  6.69567631E-02
  1.05450627E+00  1.00000000E+00  1.00000000E+00  1.83107443E-03  1.39501722E-02
  6.84450781E-02  2.32714336E-01  4.70192898E-01  3.58520853E-01 -1.10777550E-01
 -1.48026263E-01  1.13076702E+00  1.00000000E+00  1.00000000E+00  1.83107443E-03
  1.39501722E-02  6.84450781E-02  2.32714336E-01  4.70192898E-01  3.58520853E-01
 -1.10777550E-01 -1.48026263E-01  1.13076702E+00  1.00000000E+00  1.00000000E+00
  1.83473713E-03  1.40373228E-02  6.88426223E-02  2.32184443E-01  4.67941348E-01
  3.62311985E-01 -1.19332420E-01 -1.60854152E-01  1.14345644E+00  1.00000000E+00
  1.00000000E+00  1.83473713E-03  1.40373228E-02  6.88426223E-02  2.32184443E-01
  4.67941348E-01  3.62311985E-01 -1.19332420E-01 -1.60854152E-01  1.14345644E+00
  1.00000000E+00  1.00000000E+00  1.83473713E-03  1.40373228E-02  6.88426223E-02
  2.32184443E-01  4.67941348E-01  3.62311985E-01 -1.19332420E-01 -1.60854152E-01
  1.14345644E+00  1.00000000E+00  1.00000000E+00  1.83473713E-03  1.40373228E-02
  6.88426223E-02  2.32184443E-01  4.67941348E-01  3.62311985E-01 -1.19332420E-01
 -1.60854152E-01  1.14345644E+00  1.00000000E+00  1.00000000E+00  1.83473713E-03
  1.40373228E-02  6.88426223E-02  2.32184443E-01  4.67941348E-01  3.62311985E-01
 -1.19332420E-01 -1.60854152E-01  1.14345644E+00  1.00000000E+00  1.00000000E+00
  1.83473713E-03  1.40373228E-02  6.88426223E-02  2.32184443E-01  4.67941348E-01
  3.62311985E-01 -1.19332420E-01 -1.60854152E-01  1.14345644E+00  1.00000000E+00
  1.00000000E+00  1.83473713E-03  1.40373228E-02  6.88426223E-02  2.32184443E-01
  4.67941348E-01  3.62311985E-01 -1.19332420E-01 -1.60854152E-01  1.14345644E+00
  1.00000000E+00  1.00000000E+00  3.34946043E-02  2.34726953E-01  8.13757326E-01
  1.00000000E+00  3.34946043E-02  2.34726953E-01  8.13757326E-01  1.00000000E+00
  3.34946043E-02  2.34726953E-01  8.13757326E-01  1.00000000E+00  3.34946043E-02
  2.34726953E-01  8.13757326E-01  1.00000000E+00  3.34946043E-02  2.34726953E-01
  8.13757326E-01  1.00000000E+00
P(S=P) Contraction coefficients            R   N=         187
  0.00000000E+00  0.00000000E+00  0.00000000E+00  0.00000000E+00  0.00000000E+00
  0.00000000E+00  3.98940088E-03  3.03177067E-02  1.29880029E-01  3.27951072E-01
  4.53527100E-01  2.52154056E-01 -1.42993147E-02  3.23572333E-01  7.43507765E-01
  1.00000000E+00  0.00000000E+00  0.00000000E+00  0.00000000E+00  0.00000000E+00
  0.00000000E+00  0.00000000E+00  0.00000000E+00  3.98940088E-03  3.03177067E-02
  1.29880029E-01  3.27951072E-01  4.53527100E-01  2.52154056E-01 -1.42993147E-02
  3.23572333E-01  7.43507765E-01  1.00000000E+00  0.00000000E+00  0.00000000E+00
  0.00000000E+00  0.00000000E+00  0.00000000E+00  0.00000000E+00  0.00000000E+00
  3.98940088E-03  3.03177067E-02  1.29880029E-01  3.27951072E-01  4.53527100E-01
  2.52154056E-01 -1.42993147E-02  3.23572333E-01  7.43507765E-01  1.00000000E+00
  0.00000000E+00  0.00000000E+00  0.00000000E+00  0.00000000E+00  0.00000000E+00
  0.00000000E+00  0.00000000E+00  4.06100998E-03  3.06812999E-02  1.30451999E-01
  3.27204999E-01  4.52850998E-01  2.56041999E-01 -1.45104895E-02  3.10262776E-01
  7.54482456E-01  1.00000000E+00  0.00000000E+00  0.00000000E+00  0.00000000E+00
  0.00000000E+00  0.00000000E+00  0.00000000E+00  0.00000000E+00  7.08742682E-02
  3.39752839E-01  7.27158577E-01  1.00000000E+00  0.00000000E+00  0.00000000E+00
  0.00000000E+00  0.00000000E+00  0.00000000E+00  0.00000000E+00  0.00000000E+00
  7.08742682E-02  3.39752839E-01  7.27158577E-01  1.00000000E+00  0.00000000E+00
  0.00000000E+00  0.00000000E+00  0.00000000E+00  0.00000000E+00  0.00000000E+00
  0.00000000E+00  6.89990666E-02  3.16423961E-01  7.44308291E-01  1.00000000E+00
  0.00000000E+00  0.00000000E+00  0.00000000E+00  0.00000000E+00  0.00000000E+00
  0.00000000E+00  0.00000000E+00  6.89990666E-02  3.16423961E-01  7.44308291E-01
  1.00000000E+00  0.00000000E+00  0.00000000E+00  0.00000000E+00  0.00000000E+00
  0.00000000E+00  0.00000000E+00  0.00000000E+00  6.89990666E-02  3.16423961E-01
  7.44308291E-01  1.00000000E+00  0.00000000E+00  0.00000000E+00  0.00000000E+00
  0.00000000E+00  0.00000000E+00  0.00000000E+00  0.00000000E+00  6.89990666E-02
  3.16423961E-01  7.44308291E-01  1.00000000E+00  0.00000000E+00  0.00000000E+00
  0.00000000E+00  0.00000000E+00  0.00000000E+00  0.00000000E+00  0.00000000E+00
  6.89990666E-02  3.16423961E-01  7.44308291E-01  1.00000000E+00  0.00000000E+00
  0.00000000E+00  0.00000000E+00  0.00000000E+00  0.00000000E+00  0.00000000E+00
  0.00000000E+00  6.89990666E-02  3.16423961E-01  7.44308291E-01  1.00000000E+00
  0.00000000E+00  0.00000000E+00  0.00000000E+00  0.00000000E+00  0.00000000E+00
  0.00000000E+00  0.00000000E+00  6.89990666E-02  3.16423961E-01  7.44308291E-01
  1.00000000E+00  0.00000000E+00  0.00000000E+00  0.00000000E+00  0.00000000E+00
  0.00000000E+00  0.00000000E+00  0.00000000E+00  0.00000000E+00  0.00000000E+00
  0.00000000E+00  0.00000000E+00  0.00000000E+00  0.00000000E+00  0.00000000E+00
  0.00000000E+00  0.00000000E+00  0.00000000E+00  0.00000000E+00  0.00000000E+00
  0.00000000E+00  0.00000000E+00
Coordinates of each shell                  R   N=         198
  5.77931410E+00 -6.00889369E-05  4.06897293E-01  5.77931410E+00 -6.00889369E-05
  4.06897293E-01  5.77931410E+00 -6.00889369E-05  4.06897293E-01  5.77931410E+00
 -6.00889369E-05  4.06897293E-01  5.77931410E+00 -6.00889369E-05  4.06897293E-01
  2.05841295E+00  2.74033108E+00 -2.54301975E+00  2.05841295E+00  2.74033108E+00
 -2.54301975E+00  2.05841295E+00  2.74033108E+00 -2.54301975E+00  2.05841295E+00
  2.74033108E+00 -2.54301975E+00  2.05841295E+00  2.74033108E+00 -2.54301975E+00
  2.05834672E+00 -2.74004777E+00 -2.54332677E+00  2.05834672E+00 -2.74004777E+00
 -2.54332677E+00  2.05834672E+00 -2.74004777E+00 -2.54332677E+00  2.05834672E+00
 -2.74004777E+00 -2.54332677E+00  2.05834672E+00 -2.74004777E+00 -2.54332677E+00
  5.35822733E-01 -1.06143609E-04  2.13904543E+00  5.35822733E-01 -1.06143609E-04
  2.13904543E+00  5.35822733E-01 -1.06143609E-04  2.13904543E+00  5.35822733E-01
 -1.06143609E-04  2.13904543E+00  5.35822733E-01 -1.06143609E-04  2.13904543E+00
  9.85894607E-01  2.42813243E+00  3.38253331E+00  9.85894607E-01  2.42813243E+00
  3.38253331E+00  9.85894607E-01  2.42813243E+00  3.38253331E+00  9.85894607E-01
  2.42813243E+00  3.38253331E+00  9.85892412E-01 -2.42847344E+00  3.38228144E+00
  9.85892412E-01 -2.42847344E+00  3.38228144E+00  9.85892412E-01 -2.42847344E+00
  3.38228144E+00  9.85892412E-01 -2.42847344E+00  3.38228144E+00 -2.55269768E+00
 -3.87853799E-05  8.57753930E-01 -2.55269768E+00 -3.87853799E-05  8.57753930E-01
 -2.55269768E+00 -3.87853799E-05  8.57753930E-01 -2.55269768E+00 -3.87853799E-05
  8.57753930E-01  2.66277589E+00  3.67992933E-05 -7.50488503E-01  2.66277589E+00
  3.67992933E-05 -7.50488503E-01  2.66277589E+00  3.67992933E-05 -7.50488503E-01
  2.66277589E+00  3.67992933E-05 -7.50488503E-01 -3.74819854E+00 -2.31282642E+00
  4.16283319E-01 -3.74819854E+00 -2.31282642E+00  4.16283319E-01 -3.74819854E+00
 -2.31282642E+00  4.16283319E-01 -3.74819854E+00 -2.31282642E+00  4.16283319E-01
 -3.74817904E+00  2.31279427E+00  4.16465922E-01 -3.74817904E+00  2.31279427E+00
  4.16465922E-01 -3.74817904E+00  2.31279427E+00  4.16465922E-01 -3.74817904E+00
  2.31279427E+00  4.16465922E-01 -6.20512437E+00 -2.29090776E+00 -5.37072019E-01
 -6.20512437E+00 -2.29090776E+00 -5.37072019E-01 -6.20512437E+00 -2.29090776E+00
 -5.37072019E-01 -6.20512437E+00 -2.29090776E+00 -5.37072019E-01 -6.20510472E+00
  2.29097115E+00 -5.36892474E-01 -6.20510472E+00  2.29097115E+00 -5.36892474E-01
 -6.20510472E+00  2.29097115E+00 -5.36892474E-01 -6.20510472E+00  2.29097115E+00
 -5.36892474E-01 -7.42446405E+00  5.61316688E-05 -1.02570507E+00 -7.42446405E+00
  5.61316688E-05 -1.02570507E+00 -7.42446405E+00  5.61316688E-05 -1.02570507E+00
 -7.42446405E+00  5.61316688E-05 -1.02570507E+00 -2.78437542E+00 -4.07033552E+00
  8.54712321E-01 -2.78437542E+00 -4.07033552E+00  8.54712321E-01 -2.78434808E+00
  4.07026203E+00  8.55042709E-01 -2.78434808E+00  4.07026203E+00  8.55042709E-01
 -7.17282953E+00 -4.06784441E+00 -8.88992554E-01 -7.17282953E+00 -4.06784441E+00
 -8.88992554E-01 -7.17279412E+00  4.06794384E+00 -8.88674408E-01 -7.17279412E+00
  4.06794384E+00 -8.88674408E-01 -9.34041166E+00  9.31792971E-05 -1.76676657E+00
 -9.34041166E+00  9.31792971E-05 -1.76676657E+00
Constraint Structure                       R   N=          54
  5.77931410E+00 -6.00889369E-05  4.06897293E-01  2.05841295E+00  2.74033108E+00
 -2.54301975E+00  2.05834672E+00 -2.74004777E+00 -2.54332677E+00  5.35822733E-01
 -1.06143609E-04  2.13904543E+00  9.85894607E-01  2.42813243E+00  3.38253331E+00
  9.85892412E-01 -2.42847344E+00  3.38228144E+00 -2.55269768E+00 -3.87853799E-05
  8.57753930E-01  2.66277589E+00  3.67992933E-05 -7.50488503E-01 -3.74819854E+00
 -2.31282642E+00  4.16283319E-01 -3.74817904E+00  2.31279427E+00  4.16465922E-01
 -6.20512437E+00 -2.29090776E+00 -5.37072019E-01 -6.20510472E+00  2.29097115E+00
 -5.36892474E-01 -7.42446405E+00  5.61316688E-05 -1.02570507E+00 -2.78437542E+00
 -4.07033552E+00  8.54712321E-01 -2.78434808E+00  4.07026203E+00  8.55042709E-01
 -7.17282953E+00 -4.06784441E+00 -8.88992554E-01 -7.17279412E+00  4.06794384E+00
 -8.88674408E-01 -9.34041166E+00  9.31792971E-05 -1.76676657E+00
Num ILSW                                   I              100
ILSW                                       I   N=         100
           0           1           0           0           2           0
           0           0           0           0           0          -1
           0           0           0           0           0           0
           0           0           0           0           1           0
           1           0           0           0           0           0
           0           0      100000           0          -1           0
           0           0           0           0           0           0
           0           0           0           1           1           0
           0           0           1           0           0           0
           0           0           4          40           0           0
           0           0           0           0           0           0
           0           0           0           0           0           0
           0           0           0           0           0           0
           0           0           0           0           0           0
           0           0           0           0           0           0
           0           0           0           0           0           0
           0           0           0           0
Num RLSW                                   I               40
RLSW                                       R   N=          40
  1.00000000E+00  1.00000000E+00  1.00000000E+00  1.00000000E+00  1.00000000E+00
  0.00000000E+00  0.00000000E+00  1.00000000E+00  0.00000000E+00  0.00000000E+00
  0.00000000E+00  0.00000000E+00  1.00000000E+00  0.00000000E+00  0.00000000E+00
  0.00000000E+00  0.00000000E+00  1.00000000E+00  0.00000000E+00  0.00000000E+00
  0.00000000E+00  0.00000000E+00  1.00000000E+00  0.00000000E+00  0.00000000E+00
  0.00000000E+00  0.00000000E+00  1.00000000E+00  0.00000000E+00  0.00000000E+00
  0.00000000E+00  0.00000000E+00  0.00000000E+00  0.00000000E+00  0.00000000E+00
  0.00000000E+00  0.00000000E+00  0.00000000E+00  1.00000000E+00  1.00000000E+00
MxBond                                     I                4
NBond                                      I   N=          18
           1           1           1           4           1           1
           3           4           3           3           3           3
           3           1           1           1           1           1
IBond                                      I   N=          72
           8           0           0           0           8           0
           0           0           8           0           0           0
           5           6           7           8           4           0
           0           0           4           0           0           0
           4           9          10           0           1           2
           3           4           7          11          14           0
           7          12          15           0           9          13
          16           0          10          13          17           0
          11          12          18           0           9           0
           0           0          10           0           0           0
          11           0           0           0          12           0
           0           0          13           0           0           0
RBond                                      R   N=          72
  1.00000000E+00  0.00000000E+00  0.00000000E+00  0.00000000E+00  1.00000000E+00
  0.00000000E+00  0.00000000E+00  0.00000000E+00  1.00000000E+00  0.00000000E+00
  0.00000000E+00  0.00000000E+00  2.00000000E+00  2.00000000E+00  1.00000000E+00
  1.00000000E+00  2.00000000E+00  0.00000000E+00  0.00000000E+00  0.00000000E+00
  2.00000000E+00  0.00000000E+00  0.00000000E+00  0.00000000E+00  1.00000000E+00
  1.50000000E+00  1.50000000E+00  0.00000000E+00  1.00000000E+00  1.00000000E+00
  1.00000000E+00  1.00000000E+00  1.50000000E+00  1.50000000E+00  1.00000000E+00
  0.00000000E+00  1.50000000E+00  1.50000000E+00  1.00000000E+00  0.00000000E+00
  1.50000000E+00  1.50000000E+00  1.00000000E+00  0.00000000E+00  1.50000000E+00
  1.50000000E+00  1.00000000E+00  0.00000000E+00  1.50000000E+00  1.50000000E+00
  1.00000000E+00  0.00000000E+00  1.00000000E+00  0.00000000E+00  0.00000000E+00
  0.00000000E+00  1.00000000E+00  0.00000000E+00  0.00000000E+00  0.00000000E+00
  1.00000000E+00  0.00000000E+00  0.00000000E+00  0.00000000E+00  1.00000000E+00
  0.00000000E+00  0.00000000E+00  0.00000000E+00  1.00000000E+00  0.00000000E+00
  0.00000000E+00  0.00000000E+00
Virial Ratio                               R      2.000952655512640E+00
SCF Energy                                 R     -2.193541806271192E+03
MP2 Energy                                 R     -2.195345837390682E+03
Total Energy                               R     -2.195345837390682E+03
Post-SCF wavefunction norm                 R      1.813883826215184E+00
RMS Force                                  R      6.868923199918172E-07
RMS Density                                R      2.409109914261532E-09
External E-field                           R   N=          35
  0.00000000E+00  0.00000000E+00  0.00000000E+00  0.00000000E+00  0.00000000E+00
  0.00000000E+00  0.00000000E+00  0.00000000E+00  0.00000000E+00  0.00000000E+00
  0.00000000E+00  0.00000000E+00  0.00000000E+00  0.00000000E+00  0.00000000E+00
  0.00000000E+00  0.00000000E+00  0.00000000E+00  0.00000000E+00  0.00000000E+00
  0.00000000E+00  0.00000000E+00  0.00000000E+00  0.00000000E+00  0.00000000E+00
  0.00000000E+00  0.00000000E+00  0.00000000E+00  0.00000000E+00  0.00000000E+00
  0.00000000E+00  0.00000000E+00  0.00000000E+00  0.00000000E+00  0.00000000E+00
IOpCl                                      I                0
IROHF                                      I                0
Alpha Orbital Energies                     R   N=         221
 -1.04869608E+02 -1.04869607E+02 -1.04864634E+02 -9.22200238E+01 -2.05804603E+01
 -2.05804416E+01 -1.14653457E+01 -1.12979049E+01 -1.12844025E+01 -1.12843402E+01
 -1.12790830E+01 -1.12691578E+01 -1.12690834E+01 -1.06038049E+01 -1.06037887E+01
 -1.05986820E+01 -9.19506360E+00 -8.07321147E+00 -8.07320328E+00 -8.06930325E+00
 -8.06930023E+00 -8.06918508E+00 -8.06918392E+00 -8.06813139E+00 -8.06409298E+00
 -8.06400603E+00 -6.88036118E+00 -6.88031833E+00 -6.87969254E+00 -1.46952869E+00
 -1.35842715E+00 -1.26737067E+00 -1.19230440E+00 -1.13470896E+00 -1.13219560E+00
 -1.07334071E+00 -1.05191667E+00 -9.62421073E-01 -8.73374397E-01 -8.64344193E-01
 -8.03868810E-01 -7.46368037E-01 -7.16949877E-01 -6.88213894E-01 -6.77204697E-01
 -6.56223039E-01 -6.51116698E-01 -6.41861746E-01 -6.31817697E-01 -6.24572548E-01
 -5.57716556E-01 -5.48248820E-01 -5.39719319E-01 -5.32431357E-01 -5.21271321E-01
 -5.16746003E-01 -5.15208085E-01 -4.97092905E-01 -4.92909409E-01 -4.76915315E-01
 -4.70299578E-01 -4.61907192E-01 -4.37405425E-01 -3.79464472E-01 -3.66496944E-01
  6.95346690E-02  1.10118453E-01  1.15777680E-01  1.56913550E-01  1.61203368E-01
  1.86326989E-01  2.18104863E-01  2.55629948E-01  2.60315885E-01  2.77157944E-01
  2.84264626E-01  3.04197270E-01  3.11829984E-01  3.30037850E-01  3.37308235E-01
  4.02804092E-01  4.37890002E-01  4.38828026E-01  4.54384049E-01  4.56170126E-01
  4.93084694E-01  5.15356082E-01  5.34055150E-01  5.63031316E-01  5.81238503E-01
  5.88727140E-01  6.04333290E-01  6.13758943E-01  6.30224814E-01  6.44060095E-01