
    -----------------------------------------------------------------------
          Psi4: An Open-Source Ab Initio Electronic Structure Package
                               Psi4 1.4a2.dev612 

                         Git: Rev {master} 58d3bc0 


    D. G. A. Smith, L. A. Burns, A. C. Simmonett, R. M. Parrish,
    M. C. Schieber, R. Galvelis, P. Kraus, H. Kruse, R. Di Remigio,
    A. Alenaizan, A. M. James, S. Lehtola, J. P. Misiewicz, M. Scheurer,
    R. A. Shaw, J. B. Schriber, Y. Xie, Z. L. Glick, D. A. Sirianni,
    J. S. O'Brien, J. M. Waldrop, A. Kumar, E. G. Hohenstein,
    B. P. Pritchard, B. R. Brooks, H. F. Schaefer III, A. Yu. Sokolov,
    K. Patkowski, A. E. DePrince III, U. Bozkaya, R. A. King,
    F. A. Evangelista, J. M. Turney, T. D. Crawford, C. D. Sherrill,
    J. Chem. Phys. 152(18) 184108 (2020). https://doi.org/10.1063/5.0006002

                            Additional Code Authors
    E. T. Seidl, C. L. Janssen, E. F. Valeev, M. L. Leininger,
    J. F. Gonthier, R. M. Richard, H. R. McAlexander, M. Saitow, X. Wang,
    P. Verma, and M. H. Lechner

             Previous Authors, Complete List of Code Contributors,
                       and Citations for Specific Modules
    https://github.com/psi4/psi4/blob/master/codemeta.json
    https://github.com/psi4/psi4/graphs/contributors
    http://psicode.org/psi4manual/master/introduction.html#citing-psifour

    -----------------------------------------------------------------------


    Psi4 started on: Monday, 01 February 2021 11:42AM

    Process ID: 51740
    Host:       node59.bme.utexas.edu
    PSIDATADIR: /home/xy3866/.conda/envs/test-rdkit/share/psi4
    Memory:     500.0 MiB
    Threads:    8
    
  ==> Input File <==

--------------------------------------------------------------------------
#psi4
#
memory 32 gb

molecule  {
0 1
  O        3.1477550    -1.4485350    -0.2143050
  N        0.9062980    -1.2504610    -0.5893500
  N        1.5545360     1.4658350     0.3351760
  C       -0.6961080     0.5074870     0.0337420
  C       -0.3911060    -0.8453020    -0.2363150
  C        0.3345050     1.5654110    -0.0838510
  C        1.9201190     0.2388570     1.0398190
  C       -1.9650011     0.8051000     0.6280508
  C       -1.4126000    -1.8085370    -0.2310830
  C        2.0871850    -0.8915250     0.0446260
  C       -0.0584500     2.8482670    -0.7690020
  C       -3.0319510    -0.1194250     0.3623450
  C       -2.7230760    -1.4503270     0.0616580
  H        0.9974690    -2.0891180    -1.1576180
  H        1.1650960    -0.0456930     1.7889680
  H        2.8821530     0.3846540     1.5322680
  H       -2.2754030     1.8777800     0.5574090
  H       -1.1609050    -2.8458310    -0.4446670
  H       -0.7945500     3.4046450    -0.1790500
  H       -0.5037450     2.6486950    -1.7485080
  H        0.8332190     3.4662990    -0.8854880
  H       -4.0517820     0.1644530     0.6082680
  H       -3.5008180    -2.2099170     0.0672390
units angstrom
no_reorient  #important for SAPT in psi4, default
symmetry c1  #important for SAPT in psi4, default
}

set PROPERTIES_ORIGIN ["COM"]
properties('MP2/aug-cc-pvtz', properties = ['dipole'])
--------------------------------------------------------------------------

  Memory set to  29.802 GiB by Python driver.
    SCF Algorithm Type (re)set to DF.

*** tstart() called on node59.bme.utexas.edu
*** at Mon Feb  1 11:42:28 2021

   => Loading Basis Set <=

    Name: AUG-CC-PVTZ
    Role: ORBITAL
    Keyword: BASIS
    atoms 1     entry O          line   331 file /home/xy3866/.conda/envs/test-rdkit/share/psi4/basis/aug-cc-pvtz.gbs 
    atoms 2-3   entry N          line   285 file /home/xy3866/.conda/envs/test-rdkit/share/psi4/basis/aug-cc-pvtz.gbs 
    atoms 4-13  entry C          line   239 file /home/xy3866/.conda/envs/test-rdkit/share/psi4/basis/aug-cc-pvtz.gbs 
    atoms 14-23 entry H          line    40 file /home/xy3866/.conda/envs/test-rdkit/share/psi4/basis/aug-cc-pvtz.gbs 


         ---------------------------------------------------------
                                   SCF
               by Justin Turney, Rob Parrish, Andy Simmonett
                          and Daniel G. A. Smith
                              RHF Reference
                        8 Threads,  30517 MiB Core
         ---------------------------------------------------------

  ==> Geometry <==

    Molecular point group: c1
    Full point group: C1

    Geometry (in Angstrom), charge = 0, multiplicity = 1:

       Center              X                  Y                   Z               Mass       
    ------------   -----------------  -----------------  -----------------  -----------------
         O            3.106910990167    -1.418893103411    -0.233565056307    15.994914619570
         N            0.865453990167    -1.220819103411    -0.608610056307    14.003074004430
         N            1.513691990167     1.495476896589     0.315915943693    14.003074004430
         C           -0.736952009833     0.537128896589     0.014481943693    12.000000000000
         C           -0.431950009833    -0.815660103411    -0.255575056307    12.000000000000
         C            0.293660990167     1.595052896589    -0.103111056307    12.000000000000
         C            1.879274990167     0.268498896589     1.020558943693    12.000000000000
         C           -2.005845109833     0.834741896589     0.608790743693    12.000000000000
         C           -1.453444009833    -1.778895103411    -0.250343056307    12.000000000000
         C            2.046340990167    -0.861883103411     0.025365943693    12.000000000000
         C           -0.099294009833     2.877908896589    -0.788262056307    12.000000000000
         C           -3.072795009833    -0.089783103411     0.343084943693    12.000000000000
         C           -2.763920009833    -1.420685103411     0.042397943693    12.000000000000
         H            0.956624990167    -2.059476103411    -1.176878056307     1.007825032230
         H            1.124251990167    -0.016051103411     1.769707943693     1.007825032230
         H            2.841308990167     0.414295896589     1.513007943693     1.007825032230
         H           -2.316247009833     1.907421896589     0.538148943693     1.007825032230
         H           -1.201749009833    -2.816189103411    -0.463927056307     1.007825032230
         H           -0.835394009833     3.434286896589    -0.198310056307     1.007825032230
         H           -0.544589009833     2.678336896589    -1.767768056307     1.007825032230
         H            0.792374990167     3.495940896589    -0.904748056307     1.007825032230
         H           -4.092626009833     0.194094896589     0.589007943693     1.007825032230
         H           -3.541662009833    -2.180275103411     0.047978943693     1.007825032230

  Running in c1 symmetry.

  Rotational constants: A =      0.04161  B =      0.02505  C =      0.01711 [cm^-1]
  Rotational constants: A =   1247.53860  B =    750.84569  C =    512.93525 [MHz]
  Nuclear repulsion =  759.652404766912241

  Charge       = 0
  Multiplicity = 1
  Electrons    = 92
  Nalpha       = 46
  Nbeta        = 46

  ==> Algorithm <==

  SCF Algorithm Type is DF.
  DIIS enabled.
  MOM disabled.
  Fractional occupation disabled.
  Guess Type is SAD.
  Energy threshold   = 1.00e-10
  Density threshold  = 1.00e-10
  Integral threshold = 0.00e+00

  ==> Primary Basis <==

  Basis Set: AUG-CC-PVTZ
    Blend: AUG-CC-PVTZ
    Number of shells: 272
    Number of basis function: 828
    Number of Cartesian functions: 965
    Spherical Harmonics?: true
    Max angular momentum: 3

   => Loading Basis Set <=

    Name: (AUG-CC-PVTZ AUX)
    Role: JKFIT
    Keyword: DF_BASIS_SCF
    atoms 1     entry O          line   286 file /home/xy3866/.conda/envs/test-rdkit/share/psi4/basis/aug-cc-pvtz-jkfit.gbs 
    atoms 2-3   entry N          line   224 file /home/xy3866/.conda/envs/test-rdkit/share/psi4/basis/aug-cc-pvtz-jkfit.gbs 
    atoms 4-13  entry C          line   162 file /home/xy3866/.conda/envs/test-rdkit/share/psi4/basis/aug-cc-pvtz-jkfit.gbs 
    atoms 14-23 entry H          line    70 file /home/xy3866/.conda/envs/test-rdkit/share/psi4/basis/aug-cc-pvtz-jkfit.gbs 

  ==> Integral Setup <==

  DFHelper Memory: AOs need 8.846 GiB; user supplied 22.352 GiB. Using in-core AOs.

  ==> MemDFJK: Density-Fitted J/K Matrices <==

    J tasked:                   Yes
    K tasked:                   Yes
    wK tasked:                   No
    OpenMP threads:               8
    Memory [MiB]:             22888
    Algorithm:                 Core
    Schwarz Cutoff:           1E-12
    Mask sparsity (%):       6.6209
    Fitting Condition:        1E-10

   => Auxiliary Basis Set <=

  Basis Set: (AUG-CC-PVTZ AUX)
    Blend: AUG-CC-PVTZ-JKFIT
    Number of shells: 530
    Number of basis function: 1812
    Number of Cartesian functions: 2253
    Spherical Harmonics?: true
    Max angular momentum: 4

  Minimum eigenvalue in the overlap matrix is 8.2510457243E-07.
  Reciprocal condition number of the overlap matrix is 3.8037086272E-08.
    Using symmetric orthogonalization.

  ==> Pre-Iterations <==

  SCF Guess: Superposition of Atomic Densities via on-the-fly atomic UHF (no occupation information).

   -------------------------
    Irrep   Nso     Nmo    
   -------------------------
     A        828     828 
   -------------------------
    Total     828     828
   -------------------------

  ==> Iterations <==

                           Total Energy        Delta E     RMS |[F,P]|

   @DF-RHF iter SAD:  -567.87546514526196   -5.67875e+02   0.00000e+00 
   @DF-RHF iter   1:  -568.07803093496682   -2.02566e-01   9.56711e-04 DIIS
   @DF-RHF iter   2:  -568.36138401820267   -2.83353e-01   5.06918e-04 DIIS
   @DF-RHF iter   3:  -568.42876772843215   -6.73837e-02   1.25308e-04 DIIS
   @DF-RHF iter   4:  -568.43470221267364   -5.93448e-03   5.49665e-05 DIIS
   @DF-RHF iter   5:  -568.43587118668165   -1.16897e-03   1.03773e-05 DIIS
   @DF-RHF iter   6:  -568.43595139281683   -8.02061e-05   5.12258e-06 DIIS
   @DF-RHF iter   7:  -568.43597014695638   -1.87541e-05   1.94039e-06 DIIS
   @DF-RHF iter   8:  -568.43597379990172   -3.65295e-06   8.16024e-07 DIIS
   @DF-RHF iter   9:  -568.43597451735855   -7.17457e-07   3.26062e-07 DIIS
   @DF-RHF iter  10:  -568.43597465223502   -1.34876e-07   1.27227e-07 DIIS
   @DF-RHF iter  11:  -568.43597467608095   -2.38459e-08   6.29408e-08 DIIS
   @DF-RHF iter  12:  -568.43597468137909   -5.29815e-09   3.27139e-08 DIIS
   @DF-RHF iter  13:  -568.43597468309008   -1.71099e-09   1.36696e-08 DIIS
   @DF-RHF iter  14:  -568.43597468341659   -3.26509e-10   5.92812e-09 DIIS
   @DF-RHF iter  15:  -568.43597468346752   -5.09317e-11   2.28802e-09 DIIS
   @DF-RHF iter  16:  -568.43597468347411   -6.59384e-12   9.86100e-10 DIIS
   @DF-RHF iter  17:  -568.43597468347332    7.95808e-13   3.39270e-10 DIIS
   @DF-RHF iter  18:  -568.43597468347423   -9.09495e-13   1.18585e-10 DIIS
   @DF-RHF iter  19:  -568.43597468347446   -2.27374e-13   5.91416e-11 DIIS
  Energy and wave function converged.


  ==> Post-Iterations <==

    Orbital Energies [Eh]
    ---------------------

    Doubly Occupied:                                                      

       1A    -20.532769     2A    -15.606704     3A    -15.569474  
       4A    -11.363048     5A    -11.312176     6A    -11.303243  
       7A    -11.273680     8A    -11.272551     9A    -11.267598  
      10A    -11.263896    11A    -11.262830    12A    -11.262051  
      13A    -11.234974    14A     -1.387853    15A     -1.276172  
      16A     -1.233936    17A     -1.159824    18A     -1.064715  
      19A     -1.030420    20A     -1.011460    21A     -0.951889  
      22A     -0.883046    23A     -0.857010    24A     -0.794192  
      25A     -0.766050    26A     -0.726832    27A     -0.692056  
      28A     -0.677178    29A     -0.654216    30A     -0.646782  
      31A     -0.619961    32A     -0.618589    33A     -0.603113  
      34A     -0.586641    35A     -0.566455    36A     -0.555224  
      37A     -0.542037    38A     -0.536376    39A     -0.530344  
      40A     -0.506655    41A     -0.456528    42A     -0.444013  
      43A     -0.419763    44A     -0.403400    45A     -0.356992  
      46A     -0.328917  

    Virtual:                                                              

      47A      0.020284    48A      0.026929    49A      0.033103  
      50A      0.037348    51A      0.043498    52A      0.046566  
      53A      0.051320    54A      0.058315    55A      0.060274  
      56A      0.064678    57A      0.071286    58A      0.078994  
      59A      0.083861    60A      0.087064    61A      0.093210  
      62A      0.097630    63A      0.103083    64A      0.105627  
      65A      0.107848    66A      0.111991    67A      0.115415  
      68A      0.116351    69A      0.121297    70A      0.126675  
      71A      0.131175    72A      0.133789    73A      0.135714  
      74A      0.140636    75A      0.140961    76A      0.145124  
      77A      0.147462    78A      0.151133    79A      0.155684  
      80A      0.158319    81A      0.159632    82A      0.164124  
      83A      0.166477    84A      0.173750    85A      0.179017  
      86A      0.182744    87A      0.185264    88A      0.188886  
      89A      0.193967    90A      0.199521    91A      0.207145  
      92A      0.217199    93A      0.220008    94A      0.224949  
      95A      0.227145    96A      0.233760    97A      0.239078  
      98A      0.246672    99A      0.247598   100A      0.250236  
     101A      0.252613   102A      0.260528   103A      0.261351  
     104A      0.263713   105A      0.266501   106A      0.276954  
     107A      0.281028   108A      0.283988   109A      0.288471  
     110A      0.293527   111A      0.294722   112A      0.299863  
     113A      0.305138   114A      0.308130   115A      0.312943  
     116A      0.318054   117A      0.325008   118A      0.329189  
     119A      0.331493   120A      0.339399   121A      0.340157  
     122A      0.344841   123A      0.347009   124A      0.353530  
     125A      0.354510   126A      0.356030   127A      0.361696  
     128A      0.363224   129A      0.372763   130A      0.379924  
     131A      0.384956   132A      0.387723   133A      0.393367  
     134A      0.394773   135A      0.399098   136A      0.407072  
     137A      0.408280   138A      0.413919   139A      0.417048  
     140A      0.418217   141A      0.422139   142A      0.426448  
     143A      0.430566   144A      0.438425   145A      0.442673  
     146A      0.445048   147A      0.447621   148A      0.451012  
     149A      0.458745   150A      0.459744   151A      0.463565  
     152A      0.466727   153A      0.471874   154A      0.476112  
     155A      0.482524   156A      0.486491   157A      0.488995  
     158A      0.490189   159A      0.496343   160A      0.499650  
     161A      0.501839   162A      0.506120   163A      0.509957  
     164A      0.513440   165A      0.516097   166A      0.519752  
     167A      0.522788   168A      0.527146   169A      0.533005  
     170A      0.537645   171A      0.541528   172A      0.542505  
     173A      0.546914   174A      0.552491   175A      0.555758  
     176A      0.560461   177A      0.563840   178A      0.567412  
     179A      0.573345   180A      0.579226   181A      0.579684  
     182A      0.584001   183A      0.586632   184A      0.599058  
     185A      0.604584   186A      0.607085   187A      0.614920  
     188A      0.617148   189A      0.622522   190A      0.633918  
     191A      0.640297   192A      0.643520   193A      0.646292  
     194A      0.647912   195A      0.655450   196A      0.657950  
     197A      0.663770   198A      0.667763   199A      0.684571  
     200A      0.689667   201A      0.696346   202A      0.702487  
     203A      0.704570   204A      0.708752   205A      0.713101  
     206A      0.719234   207A      0.726267   208A      0.732510  
     209A      0.737542   210A      0.742343   211A      0.746268  
     212A      0.748857   213A      0.756662   214A      0.760184  
     215A      0.768391   216A      0.769975   217A      0.784024  
     218A      0.789068   219A      0.794638   220A      0.801303  
     221A      0.806005   222A      0.808287   223A      0.814800  
     224A      0.818115   225A      0.821813   226A      0.832556  
     227A      0.837905   228A      0.846118   229A      0.848133  
     230A      0.850996   231A      0.853976   232A      0.861733  
     233A      0.864841   234A      0.873274   235A      0.874738  
     236A      0.877999   237A      0.885436   238A      0.891203  
     239A      0.898230   240A      0.905156   241A      0.910991  
     242A      0.916739   243A      0.920843   244A      0.923661  
     245A      0.925436   246A      0.932948   247A      0.935356  
     248A      0.947773   249A      0.949748   250A      0.952681  
     251A      0.959626   252A      0.963159   253A      0.973345  
     254A      0.976841   255A      0.982255   256A      0.989668  
     257A      0.995853   258A      0.996328   259A      0.999567  
     260A      1.003359   261A      1.010134   262A      1.014434  
     263A      1.017198   264A      1.027336   265A      1.030692  
     266A      1.034936   267A      1.040567   268A      1.042482  
     269A      1.044124   270A      1.050022   271A      1.053023  
     272A      1.062753   273A      1.065433   274A      1.072413  
     275A      1.075710   276A      1.080300   277A      1.081065  
     278A      1.089116   279A      1.091097   280A      1.096766  
     281A      1.100838   282A      1.106225   283A      1.116977  
     284A      1.117578   285A      1.122770   286A      1.130423  
     287A      1.134719   288A      1.136365   289A      1.145882  
     290A      1.147896   291A      1.156378   292A      1.160302  
     293A      1.168597   294A      1.170764   295A      1.182331  
     296A      1.183270   297A      1.190271   298A      1.194655  
     299A      1.197072   300A      1.199415   301A      1.205693  
     302A      1.206335   303A      1.216163   304A      1.223754  
     305A      1.232373   306A      1.234275   307A      1.235497  
     308A      1.242003   309A      1.243795   310A      1.248443  
     311A      1.256935   312A      1.267842   313A      1.276956  
     314A      1.279299   315A      1.287415   316A      1.290201  
     317A      1.295668   318A      1.306837   319A      1.312504  
     320A      1.318080   321A      1.320685   322A      1.326551  
     323A      1.338913   324A      1.341664   325A      1.343072  
     326A      1.350146   327A      1.356014   328A      1.364080  
     329A      1.372957   330A      1.379384   331A      1.387319  
     332A      1.389538   333A      1.401109   334A      1.409644  
     335A      1.415222   336A      1.418124   337A      1.421502  
     338A      1.435707   339A      1.442041   340A      1.446969  
     341A      1.455252   342A      1.462333   343A      1.470213  
     344A      1.475530   345A      1.486416   346A      1.490143  
     347A      1.491975   348A      1.500362   349A      1.508430  
     350A      1.510094   351A      1.519393   352A      1.523722  
     353A      1.529342   354A      1.542291   355A      1.545796  
     356A      1.557839   357A      1.566577   358A      1.570604  
     359A      1.572506   360A      1.575789   361A      1.596311  
     362A      1.597020   363A      1.610335   364A      1.616254  
     365A      1.621969   366A      1.624055   367A      1.636530  
     368A      1.647710   369A      1.650920   370A      1.662029  
     371A      1.666937   372A      1.667824   373A      1.671760  
     374A      1.677817   375A      1.687304   376A      1.688936  
     377A      1.696143   378A      1.697175   379A      1.702153  
     380A      1.718051   381A      1.723899   382A      1.728206  
     383A      1.734052   384A      1.746604   385A      1.753380  
     386A      1.753754   387A      1.765006   388A      1.767630  
     389A      1.773684   390A      1.788669   391A      1.798406  
     392A      1.799217   393A      1.808123   394A      1.818060  
     395A      1.826929   396A      1.831014   397A      1.837516  
     398A      1.841309   399A      1.856062   400A      1.858872  
     401A      1.866640   402A      1.868596   403A      1.875102  
     404A      1.879260   405A      1.891583   406A      1.906932  
     407A      1.909192   408A      1.912374   409A      1.922212  
     410A      1.940329   411A      1.944009   412A      1.948807  
     413A      1.958781   414A      1.961379   415A      1.975167  
     416A      1.983449   417A      1.994876   418A      1.999066  
     419A      2.003440   420A      2.021650   421A      2.025601  
     422A      2.029182   423A      2.035698   424A      2.045080  
     425A      2.047153   426A      2.056237   427A      2.058867  
     428A      2.073707   429A      2.084621   430A      2.090460  
     431A      2.090974   432A      2.110559   433A      2.115287  
     434A      2.122446   435A      2.132746   436A      2.142020  
     437A      2.149494   438A      2.164318   439A      2.170700  
     440A      2.172436   441A      2.175402   442A      2.183377  
     443A      2.186545   444A      2.198697   445A      2.206859  
     446A      2.211678   447A      2.216425   448A      2.230466  
     449A      2.240925   450A      2.253427   451A      2.258697  
     452A      2.270144   453A      2.273073   454A      2.289474  
     455A      2.294701   456A      2.300134   457A      2.312759  
     458A      2.316554   459A      2.321750   460A      2.331076  
     461A      2.341885   462A      2.349260   463A      2.359220  
     464A      2.367992   465A      2.382184   466A      2.400548  
     467A      2.406163   468A      2.420855   469A      2.428834  
     470A      2.434402   471A      2.439557   472A      2.443733  
     473A      2.459614   474A      2.464578   475A      2.481806  
     476A      2.493461   477A      2.499230   478A      2.513149  
     479A      2.523354   480A      2.528501   481A      2.541833  
     482A      2.542743   483A      2.554047   484A      2.562328  
     485A      2.579172   486A      2.586555   487A      2.590578  
     488A      2.610960   489A      2.622440   490A      2.642767  
     491A      2.653048   492A      2.660552   493A      2.667698  
     494A      2.675622   495A      2.687737   496A      2.701769  
     497A      2.710393   498A      2.728181   499A      2.749862  
     500A      2.763225   501A      2.779261   502A      2.781998  
     503A      2.794347   504A      2.806992   505A      2.823813  
     506A      2.836649   507A      2.864619   508A      2.878030  
     509A      2.890114   510A      2.913679   511A      2.927729  
     512A      2.960364   513A      2.973785   514A      2.987889  
     515A      3.008720   516A      3.013838   517A      3.023380  
     518A      3.055151   519A      3.076049   520A      3.087508  
     521A      3.105919   522A      3.129902   523A      3.137511  
     524A      3.172464   525A      3.205763   526A      3.228353  
     527A      3.262296   528A      3.273140   529A      3.277509  
     530A      3.306782   531A      3.317662   532A      3.323093  
     533A      3.330107   534A      3.344994   535A      3.352499  
     536A      3.386706   537A      3.392561   538A      3.395422  
     539A      3.409843   540A      3.424731   541A      3.445558  
     542A      3.462085   543A      3.478757   544A      3.481649  
     545A      3.489561   546A      3.498945   547A      3.511433  
     548A      3.516804   549A      3.523089   550A      3.542825  
     551A      3.549005   552A      3.564064   553A      3.571591  
     554A      3.580114   555A      3.586369   556A      3.593723  
     557A      3.608020   558A      3.617316   559A      3.623071  
     560A      3.633148   561A      3.646016   562A      3.660435  
     563A      3.665608   564A      3.676642   565A      3.688104  
     566A      3.691954   567A      3.692904   568A      3.708128  
     569A      3.713240   570A      3.721726   571A      3.732338  
     572A      3.738828   573A      3.753053   574A      3.770880  
     575A      3.773175   576A      3.779261   577A      3.790128  
     578A      3.799411   579A      3.802374   580A      3.813647  
     581A      3.820764   582A      3.828467   583A      3.839355  
     584A      3.848174   585A      3.854136   586A      3.871721  
     587A      3.874569   588A      3.884766   589A      3.899994  
     590A      3.908913   591A      3.912307   592A      3.915484  
     593A      3.916452   594A      3.937073   595A      3.945979  
     596A      3.954182   597A      3.957828   598A      3.965406  
     599A      3.968490   600A      3.976455   601A      3.996245  
     602A      3.998090   603A      4.012620   604A      4.020312  
     605A      4.022886   606A      4.032142   607A      4.043957  
     608A      4.050135   609A      4.062926   610A      4.067112  
     611A      4.075496   612A      4.083790   613A      4.087385  
     614A      4.108600   615A      4.111675   616A      4.115395  
     617A      4.125224   618A      4.137210   619A      4.141700  
     620A      4.147873   621A      4.160491   622A      4.169326  
     623A      4.177776   624A      4.188163   625A      4.199585  
     626A      4.215609   627A      4.216614   628A      4.224688  
     629A      4.234557   630A      4.248585   631A      4.264990  
     632A      4.266518   633A      4.274476   634A      4.280808  
     635A      4.286086   636A      4.293678   637A      4.306350  
     638A      4.320075   639A      4.331108   640A      4.344081  
     641A      4.353532   642A      4.358999   643A      4.365257  
     644A      4.372259   645A      4.390599   646A      4.407073  
     647A      4.410424   648A      4.415308   649A      4.432914  
     650A      4.436815   651A      4.440060   652A      4.461378  
     653A      4.465593   654A      4.478672   655A      4.493948  
     656A      4.498759   657A      4.517178   658A      4.521912  
     659A      4.533513   660A      4.535524   661A      4.543766  
     662A      4.551073   663A      4.567884   664A      4.575004  
     665A      4.587663   666A      4.593476   667A      4.599906  
     668A      4.617668   669A      4.633138   670A      4.643449  
     671A      4.665896   672A      4.673231   673A      4.684356  
     674A      4.705407   675A      4.716159   676A      4.720515  
     677A      4.736767   678A      4.742948   679A      4.754391  
     680A      4.766277   681A      4.772913   682A      4.793102  
     683A      4.805211   684A      4.810923   685A      4.838233  
     686A      4.845376   687A      4.861982   688A      4.872493  
     689A      4.886264   690A      4.890936   691A      4.895861  
     692A      4.910078   693A      4.933769   694A      4.938969  
     695A      4.948773   696A      4.962597   697A      4.983827  
     698A      4.999835   699A      5.013786   700A      5.019784  
     701A      5.021833   702A      5.045295   703A      5.051163  
     704A      5.063273   705A      5.079357   706A      5.079514  
     707A      5.087162   708A      5.098167   709A      5.118970  
     710A      5.126259   711A      5.144865   712A      5.153319  
     713A      5.159702   714A      5.165944   715A      5.173458  
     716A      5.203160   717A      5.218479   718A      5.235822  
     719A      5.245023   720A      5.250090   721A      5.257068  
     722A      5.290232   723A      5.294570   724A      5.300482  
     725A      5.309116   726A      5.330329   727A      5.358112  
     728A      5.380203   729A      5.396452   730A      5.413500  
     731A      5.419708   732A      5.441389   733A      5.447858  
     734A      5.456054   735A      5.469236   736A      5.488034  
     737A      5.512181   738A      5.526284   739A      5.528255  
     740A      5.549969   741A      5.566255   742A      5.578244  
     743A      5.593010   744A      5.618016   745A      5.625627  
     746A      5.639416   747A      5.657021   748A      5.670937  
     749A      5.688732   750A      5.702930   751A      5.714894  
     752A      5.725425   753A      5.761930   754A      5.767388  
     755A      5.787230   756A      5.827726   757A      5.842602  
     758A      5.868680   759A      5.875958   760A      5.897407  
     761A      5.938630   762A      5.960588   763A      5.987258  
     764A      5.999170   765A      6.028145   766A      6.072335  
     767A      6.101983   768A      6.109223   769A      6.126498  
     770A      6.134343   771A      6.162806   772A      6.167780  
     773A      6.209642   774A      6.209987   775A      6.231517  
     776A      6.255090   777A      6.264728   778A      6.298079  
     779A      6.335090   780A      6.357226   781A      6.380388  
     782A      6.403274   783A      6.446313   784A      6.470302  
     785A      6.558433   786A      6.586999   787A      6.641047  
     788A      6.648186   789A      6.664060   790A      6.705988  
     791A      6.710143   792A      6.726985   793A      6.751577  
     794A      6.778686   795A      6.800596   796A      6.860753  
     797A      6.883885   798A      6.888663   799A      6.927112  
     800A      6.942514   801A      7.005024   802A      7.060774  
     803A      7.083560   804A      7.125234   805A      7.161479  
     806A      7.230756   807A      7.310290   808A      7.449697  
     809A      7.472262   810A      7.574620   811A      7.688323  
     812A      7.762951   813A      7.816770   814A      7.964466  
     815A      8.011558   816A     15.787785   817A     16.025214  
     818A     16.424642   819A     16.489700   820A     17.532908  
     821A     17.720189   822A     18.296994   823A     18.606258  
     824A     19.156233   825A     19.823011   826A     20.494234  
     827A     20.723885   828A     21.711036  

    Final Occupation by Irrep:
              A 
    DOCC [    46 ]

  @DF-RHF Final Energy:  -568.43597468347446

   => Energetics <=

    Nuclear Repulsion Energy =            759.6524047669122410
    One-Electron Energy =               -2279.3494931679915680
    Two-Electron Energy =                 951.2611137176048715
    Total Energy =                       -568.4359746834744556

Computation Completed

*** tstop() called on node59.bme.utexas.edu at Mon Feb  1 11:43:41 2021
Module time:
	user time   =     531.60 seconds =       8.86 minutes
	system time =      11.27 seconds =       0.19 minutes
	total time  =         73 seconds =       1.22 minutes
Total time:
	user time   =     531.60 seconds =       8.86 minutes
	system time =      11.27 seconds =       0.19 minutes
	total time  =         73 seconds =       1.22 minutes
   => Loading Basis Set <=

    Name: (AUG-CC-PVTZ AUX)
    Role: RIFIT
    Keyword: DF_BASIS_MP2
    atoms 1     entry O          line   264 file /home/xy3866/.conda/envs/test-rdkit/share/psi4/basis/aug-cc-pvtz-ri.gbs 
    atoms 2-3   entry N          line   206 file /home/xy3866/.conda/envs/test-rdkit/share/psi4/basis/aug-cc-pvtz-ri.gbs 
    atoms 4-13  entry C          line   148 file /home/xy3866/.conda/envs/test-rdkit/share/psi4/basis/aug-cc-pvtz-ri.gbs 
    atoms 14-23 entry H          line    30 file /home/xy3866/.conda/envs/test-rdkit/share/psi4/basis/aug-cc-pvtz-ri.gbs 


*** tstart() called on node59.bme.utexas.edu
*** at Mon Feb  1 11:43:42 2021


  //>>>>>>>>>>>>>>>>>>>>>>>>>>>>>>>>>>>//
  //               DFMP2               //
  //<<<<<<<<<<<<<<<<<<<<<<<<<<<<<<<<<<<//

	 --------------------------------------------------------
	                          DF-MP2                         
	      2nd-Order Density-Fitted Moller-Plesset Theory     
	              RMP2 Wavefunction,   8 Threads             
	                                                         
	        Rob Parrish, Justin Turney, Andy Simmonett,      
	           Ed Hohenstein, and C. David Sherrill          
	 --------------------------------------------------------

   => Auxiliary Basis Set <=

  Basis Set: (AUG-CC-PVTZ AUX)
    Blend: AUG-CC-PVTZ-RI
    Number of shells: 504
    Number of basis function: 1838
    Number of Cartesian functions: 2318
    Spherical Harmonics?: true
    Max angular momentum: 4

	 --------------------------------------------------------
	                 NBF =   828, NAUX =  1838
	 --------------------------------------------------------
	   CLASS    FOCC     OCC    AOCC    AVIR     VIR    FVIR
	   PAIRS       0      46      46     782     782       0
	 --------------------------------------------------------

  DFHelper Memory: AOs need 8.846 GiB; user supplied 22.352 GiB. Using in-core AOs.


         ------------------------------------------------------------
                                     CPHF                           
                                  Rob Parrish                       
         ------------------------------------------------------------

  ==> Geometry <==

    Molecular point group: c1
    Full point group: C1

    Geometry (in Angstrom), charge = 0, multiplicity = 1:

       Center              X                  Y                   Z               Mass       
    ------------   -----------------  -----------------  -----------------  -----------------
         O            3.106910990167    -1.418893103411    -0.233565056307    15.994914619570
         N            0.865453990167    -1.220819103411    -0.608610056307    14.003074004430
         N            1.513691990167     1.495476896589     0.315915943693    14.003074004430
         C           -0.736952009833     0.537128896589     0.014481943693    12.000000000000
         C           -0.431950009833    -0.815660103411    -0.255575056307    12.000000000000
         C            0.293660990167     1.595052896589    -0.103111056307    12.000000000000
         C            1.879274990167     0.268498896589     1.020558943693    12.000000000000
         C           -2.005845109833     0.834741896589     0.608790743693    12.000000000000
         C           -1.453444009833    -1.778895103411    -0.250343056307    12.000000000000
         C            2.046340990167    -0.861883103411     0.025365943693    12.000000000000
         C           -0.099294009833     2.877908896589    -0.788262056307    12.000000000000
         C           -3.072795009833    -0.089783103411     0.343084943693    12.000000000000
         C           -2.763920009833    -1.420685103411     0.042397943693    12.000000000000
         H            0.956624990167    -2.059476103411    -1.176878056307     1.007825032230
         H            1.124251990167    -0.016051103411     1.769707943693     1.007825032230
         H            2.841308990167     0.414295896589     1.513007943693     1.007825032230
         H           -2.316247009833     1.907421896589     0.538148943693     1.007825032230
         H           -1.201749009833    -2.816189103411    -0.463927056307     1.007825032230
         H           -0.835394009833     3.434286896589    -0.198310056307     1.007825032230
         H           -0.544589009833     2.678336896589    -1.767768056307     1.007825032230
         H            0.792374990167     3.495940896589    -0.904748056307     1.007825032230
         H           -4.092626009833     0.194094896589     0.589007943693     1.007825032230
         H           -3.541662009833    -2.180275103411     0.047978943693     1.007825032230

  Nuclear repulsion =  759.652404766912241
  Reference energy  = -568.435974683474456

  ==> Basis Set <==

  Basis Set: AUG-CC-PVTZ
    Blend: AUG-CC-PVTZ
    Number of shells: 272
    Number of basis function: 828
    Number of Cartesian functions: 965
    Spherical Harmonics?: true
    Max angular momentum: 3

  ==> CGRSolver (by Rob Parrish) <==

   Number of roots    =         1
   Preconditioning    =    JACOBI
   Convergence cutoff =     1E-06
   Maximum iterations =       100

  ==> CPHFRHamiltonian (by Rob Parrish) <== 

  ==> MemDFJK: Density-Fitted J/K Matrices <==

    J tasked:                   Yes
    K tasked:                   Yes
    wK tasked:                   No
    OpenMP threads:               8
    Memory [MiB]:             22888
    Algorithm:                 Core
    Schwarz Cutoff:           1E-12
    Mask sparsity (%):       6.6209
    Fitting Condition:        1E-10

   => Auxiliary Basis Set <=

  Basis Set: (AUG-CC-PVTZ AUX)
    Blend: AUG-CC-PVTZ-JKFIT
    Number of shells: 530
    Number of basis function: 1812
    Number of Cartesian functions: 2253
    Spherical Harmonics?: true
    Max angular momentum: 4

  ==> CPHF Iterations <==

  => Iterations <=

             Iter  Converged  Remaining    Residual
  CGR           1          0          1   1.164E-01
  CGR           2          0          1   3.472E-02
  CGR           3          0          1   1.440E-02
  CGR           4          0          1   5.996E-03
  CGR           5          0          1   2.862E-03
  CGR           6          0          1   1.521E-03
  CGR           7          0          1   5.564E-04
  CGR           8          0          1   2.260E-04
  CGR           9          0          1   9.177E-05
  CGR          10          0          1   3.701E-05
  CGR          11          0          1   1.784E-05
  CGR          12          0          1   5.776E-06
  CGR          13          0          1   2.295E-06
  CGR          14          1          0   7.795E-07

    CGRSolver converged.

	-----------------------------------------------------------
	 ==================> DF-MP2 Energies <==================== 
	-----------------------------------------------------------
	 Reference Energy          =    -568.4359746834744556 [Eh]
	 Singles Energy            =      -0.0000000000000000 [Eh]
	 Same-Spin Energy          =      -0.6159416548260307 [Eh]
	 Opposite-Spin Energy      =      -1.8917580222330985 [Eh]
	 Correlation Energy        =      -2.5076996770591293 [Eh]
	 Total Energy              =    -570.9436743605335778 [Eh]
	-----------------------------------------------------------
	 ================> DF-SCS-MP2 Energies <================== 
	-----------------------------------------------------------
	 SCS Same-Spin Scale       =       0.3333333333333333 [-]
	 SCS Opposite-Spin Scale   =       1.2000000000000000 [-]
	 SCS Same-Spin Energy      =      -0.2053138849420102 [Eh]
	 SCS Opposite-Spin Energy  =      -2.2701096266797181 [Eh]
	 SCS Correlation Energy    =      -2.4754235116217282 [Eh]
	 SCS Total Energy          =    -570.9113981950962398 [Eh]
	-----------------------------------------------------------



Properties will be evaluated at   0.000000,  -0.000000,  -0.000000 [a0]

Properties computed using the MP2 density matrix

  Nuclear Dipole Moment: [e a0]
     X:    -6.3834      Y:     4.7288      Z:    -0.0507

  Electronic Dipole Moment: [e a0]
     X:     4.4118      Y:    -4.8528      Z:     0.0546

  Dipole Moment: [e a0]
     X:    -1.9715      Y:    -0.1239      Z:     0.0039     Total:     1.9754

  Dipole Moment: [D]
     X:    -5.0111      Y:    -0.3150      Z:     0.0098     Total:     5.0210


*** tstop() called on node59.bme.utexas.edu at Mon Feb  1 11:49:02 2021
Module time:
	user time   =    2181.00 seconds =      36.35 minutes
	system time =      36.92 seconds =       0.62 minutes
	total time  =        320 seconds =       5.33 minutes
Total time:
	user time   =    2712.84 seconds =      45.21 minutes
	system time =      48.20 seconds =       0.80 minutes
	total time  =        394 seconds =       6.57 minutes

    Psi4 stopped on: Monday, 01 February 2021 11:49AM
    Psi4 wall time for execution: 0:06:34.08

*** Psi4 exiting successfully. Buy a developer a beer!
