10702111                                                                
Freq      RMP2-FC                                                     6-31G(d)            
Number of atoms                            I               22
Info1-9                                    I   N=           9
          34          32        1002           0           0         100
           6           2           1
Charge                                     I                0
Multiplicity                               I                1
Number of electrons                        I               86
Number of alpha electrons                  I               43
Number of beta electrons                   I               43
Number of basis functions                  I              178
Number of independent functions            I              178
Number of point charges in /Mol/           I                0
Number of translation vectors              I                0
Atomic numbers                             I   N=          22
          16           8           8           6           6           6
           6           6           6           6           1           1
           1           1           1           1           1           1
           1           1           1           1
Nuclear charges                            R   N=          22
  1.60000000E+01  8.00000000E+00  8.00000000E+00  6.00000000E+00  6.00000000E+00
  6.00000000E+00  6.00000000E+00  6.00000000E+00  6.00000000E+00  6.00000000E+00
  1.00000000E+00  1.00000000E+00  1.00000000E+00  1.00000000E+00  1.00000000E+00
  1.00000000E+00  1.00000000E+00  1.00000000E+00  1.00000000E+00  1.00000000E+00
  1.00000000E+00  1.00000000E+00
Current cartesian coordinates              R   N=          66
  2.94547180E+00 -5.65854011E-01 -1.35157375E+00 -2.88282300E+00 -9.21585248E-01
  2.06395341E+00  1.49746057E+00  3.21380754E+00  1.59905750E+00 -1.67770368E+00
  1.83993909E+00 -1.34564360E+00 -6.10464431E+00 -1.88697766E-01 -1.06414369E+00
 -3.50400111E+00  1.20675688E-01  9.08541078E-02  9.05395159E-01  1.79240894E+00
 -1.23594807E-01 -7.86780013E+00 -1.77604622E+00  5.61796467E-01  5.57418746E+00
 -1.49297469E-01  8.17302296E-01  7.66109947E+00 -2.03171364E+00  1.95306333E-01
 -1.60335874E+00  1.27680426E+00 -3.33891013E+00 -2.38958768E+00  3.78434817E+00
 -1.26125243E+00 -6.88754049E+00  1.70328018E+00 -1.40205041E+00 -5.86117070E+00
 -1.03102626E+00 -2.94583580E+00 -9.71573447E+00 -1.95725923E+00 -3.42728674E-01
 -7.08727793E+00 -3.66257229E+00  8.54748801E-01 -8.12488098E+00 -9.11947701E-01
  2.41758691E+00  6.24028708E+00  1.79699532E+00  6.59069980E-01  4.86155354E+00
 -4.15639918E-01  2.73553348E+00  6.99280147E+00 -3.97791737E+00  3.68111986E-01
  8.37535515E+00 -1.75741491E+00 -1.72299903E+00  9.23570730E+00 -1.77537615E+00
  1.50855543E+00
Force Field                                I                0
Int Atom Types                             I   N=          22
           0           0           0           0           0           0
           0           0           0           0           0           0
           0           0           0           0           0           0
           0           0           0           0
MM charges                                 R   N=          22
  0.00000000E+00  0.00000000E+00  0.00000000E+00  0.00000000E+00  0.00000000E+00
  0.00000000E+00  0.00000000E+00  0.00000000E+00  0.00000000E+00  0.00000000E+00
  0.00000000E+00  0.00000000E+00  0.00000000E+00  0.00000000E+00  0.00000000E+00
  0.00000000E+00  0.00000000E+00  0.00000000E+00  0.00000000E+00  0.00000000E+00
  0.00000000E+00  0.00000000E+00
Integer atomic weights                     I   N=          22
          32          16          16          12          12          12
          12          12          12          12           1           1
           1           1           1           1           1           1
           1           1           1           1
Real atomic weights                        R   N=          22
  3.19720718E+01  1.59949146E+01  1.59949146E+01  1.20000000E+01  1.20000000E+01
  1.20000000E+01  1.20000000E+01  1.20000000E+01  1.20000000E+01  1.20000000E+01
  1.00782504E+00  1.00782504E+00  1.00782504E+00  1.00782504E+00  1.00782504E+00
  1.00782504E+00  1.00782504E+00  1.00782504E+00  1.00782504E+00  1.00782504E+00
  1.00782504E+00  1.00782504E+00
Atom fragment info                         I   N=          22
           0           0           0           0           0           0
           0           0           0           0           0           0
           0           0           0           0           0           0
           0           0           0           0
Atom residue num                           I   N=          22
           0           0           0           0           0           0
           0           0           0           0           0           0
           0           0           0           0           0           0
           0           0           0           0
Nuclear spins                              I   N=          22
           0           0           0           0           0           0
           0           0           0           0           1           1
           1           1           1           1           1           1
           1           1           1           1
Nuclear ZEff                               R   N=          22
 -1.36000000E+01 -5.60000000E+00 -5.60000000E+00 -3.60000000E+00 -3.60000000E+00
 -3.60000000E+00 -3.60000000E+00 -3.60000000E+00 -3.60000000E+00 -3.60000000E+00
 -1.00000000E+00 -1.00000000E+00 -1.00000000E+00 -1.00000000E+00 -1.00000000E+00
 -1.00000000E+00 -1.00000000E+00 -1.00000000E+00 -1.00000000E+00 -1.00000000E+00
 -1.00000000E+00 -1.00000000E+00
Nuclear QMom                               R   N=          22
  0.00000000E+00  0.00000000E+00  0.00000000E+00  0.00000000E+00  0.00000000E+00
  0.00000000E+00  0.00000000E+00  0.00000000E+00  0.00000000E+00  0.00000000E+00
  0.00000000E+00  0.00000000E+00  0.00000000E+00  0.00000000E+00  0.00000000E+00
  0.00000000E+00  0.00000000E+00  0.00000000E+00  0.00000000E+00  0.00000000E+00
  0.00000000E+00  0.00000000E+00
Nuclear GFac                               R   N=          22
  0.00000000E+00  0.00000000E+00  0.00000000E+00  0.00000000E+00  0.00000000E+00
  0.00000000E+00  0.00000000E+00  0.00000000E+00  0.00000000E+00  0.00000000E+00
  2.79284600E+00  2.79284600E+00  2.79284600E+00  2.79284600E+00  2.79284600E+00
  2.79284600E+00  2.79284600E+00  2.79284600E+00  2.79284600E+00  2.79284600E+00
  2.79284600E+00  2.79284600E+00
MicOpt                                     I   N=          22
          -1          -1          -1          -1          -1          -1
          -1          -1          -1          -1          -1          -1
          -1          -1          -1          -1          -1          -1
          -1          -1          -1          -1
Number of contracted shells                I               65
Number of primitive shells                 I              164
Pure/Cartesian d shells                    I                1
Pure/Cartesian f shells                    I                0
Highest angular momentum                   I                2
Largest degree of contraction              I                6
Shell types                                I   N=          65
           0          -1          -1          -1           2           0
          -1          -1           2           0          -1          -1
           2           0          -1          -1           2           0
          -1          -1           2           0          -1          -1
           2           0          -1          -1           2           0
          -1          -1           2           0          -1          -1
           2           0          -1          -1           2           0
           0           0           0           0           0           0
           0           0           0           0           0           0
           0           0           0           0           0           0
           0           0           0           0           0
Number of primitives per shell             I   N=          65
           6           6           3           1           1           6
           3           1           1           6           3           1
           1           6           3           1           1           6
           3           1           1           6           3           1
           1           6           3           1           1           6
           3           1           1           6           3           1
           1           6           3           1           1           3
           1           3           1           3           1           3
           1           3           1           3           1           3
           1           3           1           3           1           3
           1           3           1           3           1
Shell to atom map                          I   N=          65
           1           1           1           1           1           2
           2           2           2           3           3           3
           3           4           4           4           4           5
           5           5           5           6           6           6
           6           7           7           7           7           8
           8           8           8           9           9           9
           9          10          10          10          10          11
          11          12          12          13          13          14
          14          15          15          16          16          17
          17          18          18          19          19          20
          20          21          21          22          22
Primitive exponents                        R   N=         164
  2.19171000E+04  3.30149000E+03  7.54146000E+02  2.12711000E+02  6.79896000E+01
  2.30515000E+01  4.23735000E+02  1.00710000E+02  3.21599000E+01  1.18079000E+01
  4.63110000E+00  1.87025000E+00  2.61584000E+00  9.22167000E-01  3.41287000E-01
  1.17167000E-01  6.50000000E-01  5.48467166E+03  8.25234946E+02  1.88046958E+02
  5.29645000E+01  1.68975704E+01  5.79963534E+00  1.55396162E+01  3.59993359E+00
  1.01376175E+00  2.70005823E-01  8.00000000E-01  5.48467166E+03  8.25234946E+02
  1.88046958E+02  5.29645000E+01  1.68975704E+01  5.79963534E+00  1.55396162E+01
  3.59993359E+00  1.01376175E+00  2.70005823E-01  8.00000000E-01  3.04752488E+03
  4.57369518E+02  1.03948685E+02  2.92101553E+01  9.28666296E+00  3.16392696E+00
  7.86827235E+00  1.88128854E+00  5.44249258E-01  1.68714478E-01  8.00000000E-01
  3.04752488E+03  4.57369518E+02  1.03948685E+02  2.92101553E+01  9.28666296E+00
  3.16392696E+00  7.86827235E+00  1.88128854E+00  5.44249258E-01  1.68714478E-01
  8.00000000E-01  3.04752488E+03  4.57369518E+02  1.03948685E+02  2.92101553E+01
  9.28666296E+00  3.16392696E+00  7.86827235E+00  1.88128854E+00  5.44249258E-01
  1.68714478E-01  8.00000000E-01  3.04752488E+03  4.57369518E+02  1.03948685E+02
  2.92101553E+01  9.28666296E+00  3.16392696E+00  7.86827235E+00  1.88128854E+00
  5.44249258E-01  1.68714478E-01  8.00000000E-01  3.04752488E+03  4.57369518E+02
  1.03948685E+02  2.92101553E+01  9.28666296E+00  3.16392696E+00  7.86827235E+00
  1.88128854E+00  5.44249258E-01  1.68714478E-01  8.00000000E-01  3.04752488E+03
  4.57369518E+02  1.03948685E+02  2.92101553E+01  9.28666296E+00  3.16392696E+00
  7.86827235E+00  1.88128854E+00  5.44249258E-01  1.68714478E-01  8.00000000E-01
  3.04752488E+03  4.57369518E+02  1.03948685E+02  2.92101553E+01  9.28666296E+00
  3.16392696E+00  7.86827235E+00  1.88128854E+00  5.44249258E-01  1.68714478E-01
  8.00000000E-01  1.87311370E+01  2.82539436E+00  6.40121692E-01  1.61277759E-01
  1.87311370E+01  2.82539436E+00  6.40121692E-01  1.61277759E-01  1.87311370E+01
  2.82539436E+00  6.40121692E-01  1.61277759E-01  1.87311370E+01  2.82539436E+00
  6.40121692E-01  1.61277759E-01  1.87311370E+01  2.82539436E+00  6.40121692E-01
  1.61277759E-01  1.87311370E+01  2.82539436E+00  6.40121692E-01  1.61277759E-01
  1.87311370E+01  2.82539436E+00  6.40121692E-01  1.61277759E-01  1.87311370E+01
  2.82539436E+00  6.40121692E-01  1.61277759E-01  1.87311370E+01  2.82539436E+00
  6.40121692E-01  1.61277759E-01  1.87311370E+01  2.82539436E+00  6.40121692E-01
  1.61277759E-01  1.87311370E+01  2.82539436E+00  6.40121692E-01  1.61277759E-01
  1.87311370E+01  2.82539436E+00  6.40121692E-01  1.61277759E-01
Contraction coefficients                   R   N=         164
  1.86924085E-03  1.42303065E-02  6.96962317E-02  2.38487108E-01  4.83307220E-01
  3.38074154E-01 -2.37677050E-03 -3.16930067E-02 -1.13317024E-01  5.60900118E-02
  5.92255124E-01  4.55006095E-01 -2.50373114E-01  6.69567631E-02  1.05450627E+00
  1.00000000E+00  1.00000000E+00  1.83107443E-03  1.39501722E-02  6.84450781E-02
  2.32714336E-01  4.70192898E-01  3.58520853E-01 -1.10777550E-01 -1.48026263E-01
  1.13076702E+00  1.00000000E+00  1.00000000E+00  1.83107443E-03  1.39501722E-02
  6.84450781E-02  2.32714336E-01  4.70192898E-01  3.58520853E-01 -1.10777550E-01
 -1.48026263E-01  1.13076702E+00  1.00000000E+00  1.00000000E+00  1.83473713E-03
  1.40373228E-02  6.88426223E-02  2.32184443E-01  4.67941348E-01  3.62311985E-01
 -1.19332420E-01 -1.60854152E-01  1.14345644E+00  1.00000000E+00  1.00000000E+00
  1.83473713E-03  1.40373228E-02  6.88426223E-02  2.32184443E-01  4.67941348E-01
  3.62311985E-01 -1.19332420E-01 -1.60854152E-01  1.14345644E+00  1.00000000E+00
  1.00000000E+00  1.83473713E-03  1.40373228E-02  6.88426223E-02  2.32184443E-01
  4.67941348E-01  3.62311985E-01 -1.19332420E-01 -1.60854152E-01  1.14345644E+00
  1.00000000E+00  1.00000000E+00  1.83473713E-03  1.40373228E-02  6.88426223E-02
  2.32184443E-01  4.67941348E-01  3.62311985E-01 -1.19332420E-01 -1.60854152E-01
  1.14345644E+00  1.00000000E+00  1.00000000E+00  1.83473713E-03  1.40373228E-02
  6.88426223E-02  2.32184443E-01  4.67941348E-01  3.62311985E-01 -1.19332420E-01
 -1.60854152E-01  1.14345644E+00  1.00000000E+00  1.00000000E+00  1.83473713E-03
  1.40373228E-02  6.88426223E-02  2.32184443E-01  4.67941348E-01  3.62311985E-01
 -1.19332420E-01 -1.60854152E-01  1.14345644E+00  1.00000000E+00  1.00000000E+00
  1.83473713E-03  1.40373228E-02  6.88426223E-02  2.32184443E-01  4.67941348E-01
  3.62311985E-01 -1.19332420E-01 -1.60854152E-01  1.14345644E+00  1.00000000E+00
  1.00000000E+00  3.34946043E-02  2.34726953E-01  8.13757326E-01  1.00000000E+00
  3.34946043E-02  2.34726953E-01  8.13757326E-01  1.00000000E+00  3.34946043E-02
  2.34726953E-01  8.13757326E-01  1.00000000E+00  3.34946043E-02  2.34726953E-01
  8.13757326E-01  1.00000000E+00  3.34946043E-02  2.34726953E-01  8.13757326E-01
  1.00000000E+00  3.34946043E-02  2.34726953E-01  8.13757326E-01  1.00000000E+00
  3.34946043E-02  2.34726953E-01  8.13757326E-01  1.00000000E+00  3.34946043E-02
  2.34726953E-01  8.13757326E-01  1.00000000E+00  3.34946043E-02  2.34726953E-01
  8.13757326E-01  1.00000000E+00  3.34946043E-02  2.34726953E-01  8.13757326E-01
  1.00000000E+00  3.34946043E-02  2.34726953E-01  8.13757326E-01  1.00000000E+00
  3.34946043E-02  2.34726953E-01  8.13757326E-01  1.00000000E+00
P(S=P) Contraction coefficients            R   N=         164
  0.00000000E+00  0.00000000E+00  0.00000000E+00  0.00000000E+00  0.00000000E+00
  0.00000000E+00  4.06100998E-03  3.06812999E-02  1.30451999E-01  3.27204999E-01
  4.52850998E-01  2.56041999E-01 -1.45104895E-02  3.10262776E-01  7.54482456E-01
  1.00000000E+00  0.00000000E+00  0.00000000E+00  0.00000000E+00  0.00000000E+00
  0.00000000E+00  0.00000000E+00  0.00000000E+00  7.08742682E-02  3.39752839E-01
  7.27158577E-01  1.00000000E+00  0.00000000E+00  0.00000000E+00  0.00000000E+00
  0.00000000E+00  0.00000000E+00  0.00000000E+00  0.00000000E+00  7.08742682E-02
  3.39752839E-01  7.27158577E-01  1.00000000E+00  0.00000000E+00  0.00000000E+00
  0.00000000E+00  0.00000000E+00  0.00000000E+00  0.00000000E+00  0.00000000E+00
  6.89990666E-02  3.16423961E-01  7.44308291E-01  1.00000000E+00  0.00000000E+00
  0.00000000E+00  0.00000000E+00  0.00000000E+00  0.00000000E+00  0.00000000E+00
  0.00000000E+00  6.89990666E-02  3.16423961E-01  7.44308291E-01  1.00000000E+00
  0.00000000E+00  0.00000000E+00  0.00000000E+00  0.00000000E+00  0.00000000E+00
  0.00000000E+00  0.00000000E+00  6.89990666E-02  3.16423961E-01  7.44308291E-01
  1.00000000E+00  0.00000000E+00  0.00000000E+00  0.00000000E+00  0.00000000E+00
  0.00000000E+00  0.00000000E+00  0.00000000E+00  6.89990666E-02  3.16423961E-01
  7.44308291E-01  1.00000000E+00  0.00000000E+00  0.00000000E+00  0.00000000E+00
  0.00000000E+00  0.00000000E+00  0.00000000E+00  0.00000000E+00  6.89990666E-02
  3.16423961E-01  7.44308291E-01  1.00000000E+00  0.00000000E+00  0.00000000E+00
  0.00000000E+00  0.00000000E+00  0.00000000E+00  0.00000000E+00  0.00000000E+00
  6.89990666E-02  3.16423961E-01  7.44308291E-01  1.00000000E+00  0.00000000E+00
  0.00000000E+00  0.00000000E+00  0.00000000E+00  0.00000000E+00  0.00000000E+00
  0.00000000E+00  6.89990666E-02  3.16423961E-01  7.44308291E-01  1.00000000E+00
  0.00000000E+00  0.00000000E+00  0.00000000E+00  0.00000000E+00  0.00000000E+00
  0.00000000E+00  0.00000000E+00  0.00000000E+00  0.00000000E+00  0.00000000E+00
  0.00000000E+00  0.00000000E+00  0.00000000E+00  0.00000000E+00  0.00000000E+00
  0.00000000E+00  0.00000000E+00  0.00000000E+00  0.00000000E+00  0.00000000E+00
  0.00000000E+00  0.00000000E+00  0.00000000E+00  0.00000000E+00  0.00000000E+00
  0.00000000E+00  0.00000000E+00  0.00000000E+00  0.00000000E+00  0.00000000E+00
  0.00000000E+00  0.00000000E+00  0.00000000E+00  0.00000000E+00  0.00000000E+00
  0.00000000E+00  0.00000000E+00  0.00000000E+00  0.00000000E+00  0.00000000E+00
  0.00000000E+00  0.00000000E+00  0.00000000E+00  0.00000000E+00  0.00000000E+00
  0.00000000E+00  0.00000000E+00  0.00000000E+00  0.00000000E+00
Coordinates of each shell                  R   N=         195
  2.94547180E+00 -5.65854011E-01 -1.35157375E+00  2.94547180E+00 -5.65854011E-01
 -1.35157375E+00  2.94547180E+00 -5.65854011E-01 -1.35157375E+00  2.94547180E+00
 -5.65854011E-01 -1.35157375E+00  2.94547180E+00 -5.65854011E-01 -1.35157375E+00
 -2.88282300E+00 -9.21585248E-01  2.06395341E+00 -2.88282300E+00 -9.21585248E-01
  2.06395341E+00 -2.88282300E+00 -9.21585248E-01  2.06395341E+00 -2.88282300E+00
 -9.21585248E-01  2.06395341E+00  1.49746057E+00  3.21380754E+00  1.59905750E+00
  1.49746057E+00  3.21380754E+00  1.59905750E+00  1.49746057E+00  3.21380754E+00
  1.59905750E+00  1.49746057E+00  3.21380754E+00  1.59905750E+00 -1.67770368E+00
  1.83993909E+00 -1.34564360E+00 -1.67770368E+00  1.83993909E+00 -1.34564360E+00
 -1.67770368E+00  1.83993909E+00 -1.34564360E+00 -1.67770368E+00  1.83993909E+00
 -1.34564360E+00 -6.10464431E+00 -1.88697766E-01 -1.06414369E+00 -6.10464431E+00
 -1.88697766E-01 -1.06414369E+00 -6.10464431E+00 -1.88697766E-01 -1.06414369E+00
 -6.10464431E+00 -1.88697766E-01 -1.06414369E+00 -3.50400111E+00  1.20675688E-01
  9.08541078E-02 -3.50400111E+00  1.20675688E-01  9.08541078E-02 -3.50400111E+00
  1.20675688E-01  9.08541078E-02 -3.50400111E+00  1.20675688E-01  9.08541078E-02
  9.05395159E-01  1.79240894E+00 -1.23594807E-01  9.05395159E-01  1.79240894E+00
 -1.23594807E-01  9.05395159E-01  1.79240894E+00 -1.23594807E-01  9.05395159E-01
  1.79240894E+00 -1.23594807E-01 -7.86780013E+00 -1.77604622E+00  5.61796467E-01
 -7.86780013E+00 -1.77604622E+00  5.61796467E-01 -7.86780013E+00 -1.77604622E+00
  5.61796467E-01 -7.86780013E+00 -1.77604622E+00  5.61796467E-01  5.57418746E+00
 -1.49297469E-01  8.17302296E-01  5.57418746E+00 -1.49297469E-01  8.17302296E-01
  5.57418746E+00 -1.49297469E-01  8.17302296E-01  5.57418746E+00 -1.49297469E-01
  8.17302296E-01  7.66109947E+00 -2.03171364E+00  1.95306333E-01  7.66109947E+00
 -2.03171364E+00  1.95306333E-01  7.66109947E+00 -2.03171364E+00  1.95306333E-01
  7.66109947E+00 -2.03171364E+00  1.95306333E-01 -1.60335874E+00  1.27680426E+00
 -3.33891013E+00 -1.60335874E+00  1.27680426E+00 -3.33891013E+00 -2.38958768E+00
  3.78434817E+00 -1.26125243E+00 -2.38958768E+00  3.78434817E+00 -1.26125243E+00
 -6.88754049E+00  1.70328018E+00 -1.40205041E+00 -6.88754049E+00  1.70328018E+00
 -1.40205041E+00 -5.86117070E+00 -1.03102626E+00 -2.94583580E+00 -5.86117070E+00
 -1.03102626E+00 -2.94583580E+00 -9.71573447E+00 -1.95725923E+00 -3.42728674E-01
 -9.71573447E+00 -1.95725923E+00 -3.42728674E-01 -7.08727793E+00 -3.66257229E+00
  8.54748801E-01 -7.08727793E+00 -3.66257229E+00  8.54748801E-01 -8.12488098E+00
 -9.11947701E-01  2.41758691E+00 -8.12488098E+00 -9.11947701E-01  2.41758691E+00
  6.24028708E+00  1.79699532E+00  6.59069980E-01  6.24028708E+00  1.79699532E+00
  6.59069980E-01  4.86155354E+00 -4.15639918E-01  2.73553348E+00  4.86155354E+00
 -4.15639918E-01  2.73553348E+00  6.99280147E+00 -3.97791737E+00  3.68111986E-01
  6.99280147E+00 -3.97791737E+00  3.68111986E-01  8.37535515E+00 -1.75741491E+00
 -1.72299903E+00  8.37535515E+00 -1.75741491E+00 -1.72299903E+00  9.23570730E+00
 -1.77537615E+00  1.50855543E+00  9.23570730E+00 -1.77537615E+00  1.50855543E+00
Constraint Structure                       R   N=          66
  2.94547180E+00 -5.65854011E-01 -1.35157375E+00 -2.88282300E+00 -9.21585248E-01
  2.06395341E+00  1.49746057E+00  3.21380754E+00  1.59905750E+00 -1.67770368E+00
  1.83993909E+00 -1.34564360E+00 -6.10464431E+00 -1.88697766E-01 -1.06414369E+00
 -3.50400111E+00  1.20675688E-01  9.08541078E-02  9.05395159E-01  1.79240894E+00
 -1.23594807E-01 -7.86780013E+00 -1.77604622E+00  5.61796467E-01  5.57418746E+00
 -1.49297469E-01  8.17302296E-01  7.66109947E+00 -2.03171364E+00  1.95306333E-01
 -1.60335874E+00  1.27680426E+00 -3.33891013E+00 -2.38958768E+00  3.78434817E+00
 -1.26125243E+00 -6.88754049E+00  1.70328018E+00 -1.40205041E+00 -5.86117070E+00
 -1.03102626E+00 -2.94583580E+00 -9.71573447E+00 -1.95725923E+00 -3.42728674E-01
 -7.08727793E+00 -3.66257229E+00  8.54748801E-01 -8.12488098E+00 -9.11947701E-01
  2.41758691E+00  6.24028708E+00  1.79699532E+00  6.59069980E-01  4.86155354E+00
 -4.15639918E-01  2.73553348E+00  6.99280147E+00 -3.97791737E+00  3.68111986E-01
  8.37535515E+00 -1.75741491E+00 -1.72299903E+00  9.23570730E+00 -1.77537615E+00
  1.50855543E+00
Num ILSW                                   I              100
ILSW                                       I   N=         100
           0           1           0           0           2           0
           0           0           0           0           0          -1
           0           0           0           0           0           0
           0           0           0           0           1           0
           1           0           0           0           0           0
           0           0      100000           0          -1           0
           0           0           0           0           0           0
           0           0           0           1           1           0
           0           0           1           0           0           0
           0           0           4          40           0           0
           0           0           0           0           0           0
           0           0           0           0           0           0
           0           0           0           0           0           0
           0           0           0           0           0           0
           0           0           0           0           0           0
           0           0           0           0           0           0
           0           0           0           0
Num RLSW                                   I               40
RLSW                                       R   N=          40
  1.00000000E+00  1.00000000E+00  1.00000000E+00  1.00000000E+00  1.00000000E+00
  0.00000000E+00  0.00000000E+00  1.00000000E+00  0.00000000E+00  0.00000000E+00
  0.00000000E+00  0.00000000E+00  1.00000000E+00  0.00000000E+00  0.00000000E+00
  0.00000000E+00  0.00000000E+00  1.00000000E+00  0.00000000E+00  0.00000000E+00
  0.00000000E+00  0.00000000E+00  1.00000000E+00  0.00000000E+00  0.00000000E+00
  0.00000000E+00  0.00000000E+00  1.00000000E+00  0.00000000E+00  0.00000000E+00
  0.00000000E+00  0.00000000E+00  0.00000000E+00  0.00000000E+00  0.00000000E+00
  0.00000000E+00  0.00000000E+00  0.00000000E+00  1.00000000E+00  1.00000000E+00
MxBond                                     I                4
NBond                                      I   N=          22
           2           1           1           4           4           3
           3           4           4           4           1           1
           1           1           1           1           1           1
           1           1           1           1
IBond                                      I   N=          88
           7           9           0           0           6           0
           0           0           7           0           0           0
           6           7          11          12           6           8
          13          14           2           4           5           0
           1           3           4           0           5          15
          16          17           1          10          18          19
           9          20          21          22           4           0
           0           0           4           0           0           0
           5           0           0           0           5           0
           0           0           8           0           0           0
           8           0           0           0           8           0
           0           0           9           0           0           0
           9           0           0           0          10           0
           0           0          10           0           0           0
          10           0           0           0
RBond                                      R   N=          88
  1.00000000E+00  1.00000000E+00  0.00000000E+00  0.00000000E+00  2.00000000E+00
  0.00000000E+00  0.00000000E+00  0.00000000E+00  2.00000000E+00  0.00000000E+00
  0.00000000E+00  0.00000000E+00  1.00000000E+00  1.00000000E+00  1.00000000E+00
  1.00000000E+00  1.00000000E+00  1.00000000E+00  1.00000000E+00  1.00000000E+00
  2.00000000E+00  1.00000000E+00  1.00000000E+00  0.00000000E+00  1.00000000E+00
  2.00000000E+00  1.00000000E+00  0.00000000E+00  1.00000000E+00  1.00000000E+00
  1.00000000E+00  1.00000000E+00  1.00000000E+00  1.00000000E+00  1.00000000E+00
  1.00000000E+00  1.00000000E+00  1.00000000E+00  1.00000000E+00  1.00000000E+00
  1.00000000E+00  0.00000000E+00  0.00000000E+00  0.00000000E+00  1.00000000E+00
  0.00000000E+00  0.00000000E+00  0.00000000E+00  1.00000000E+00  0.00000000E+00
  0.00000000E+00  0.00000000E+00  1.00000000E+00  0.00000000E+00  0.00000000E+00
  0.00000000E+00  1.00000000E+00  0.00000000E+00  0.00000000E+00  0.00000000E+00
  1.00000000E+00  0.00000000E+00  0.00000000E+00  0.00000000E+00  1.00000000E+00
  0.00000000E+00  0.00000000E+00  0.00000000E+00  1.00000000E+00  0.00000000E+00
  0.00000000E+00  0.00000000E+00  1.00000000E+00  0.00000000E+00  0.00000000E+00
  0.00000000E+00  1.00000000E+00  0.00000000E+00  0.00000000E+00  0.00000000E+00
  1.00000000E+00  0.00000000E+00  0.00000000E+00  0.00000000E+00  1.00000000E+00
  0.00000000E+00  0.00000000E+00  0.00000000E+00
Virial Ratio                               R      2.001369325505531E+00
SCF Energy                                 R     -8.193044653450941E+02
MP2 Energy                                 R     -8.206915771798919E+02
Total Energy                               R     -8.206915771798919E+02
Post-SCF wavefunction norm                 R      1.713873143142297E+00
RMS Force                                  R      1.799078135791997E-07
RMS Density                                R      1.972525013497184E-09
External E-field                           R   N=          35
  0.00000000E+00  0.00000000E+00  0.00000000E+00  0.00000000E+00  0.00000000E+00
  0.00000000E+00  0.00000000E+00  0.00000000E+00  0.00000000E+00  0.00000000E+00
  0.00000000E+00  0.00000000E+00  0.00000000E+00  0.00000000E+00  0.00000000E+00
  0.00000000E+00  0.00000000E+00  0.00000000E+00  0.00000000E+00  0.00000000E+00
  0.00000000E+00  0.00000000E+00  0.00000000E+00  0.00000000E+00  0.00000000E+00
  0.00000000E+00  0.00000000E+00  0.00000000E+00  0.00000000E+00  0.00000000E+00
  0.00000000E+00  0.00000000E+00  0.00000000E+00  0.00000000E+00  0.00000000E+00
IOpCl                                      I                0
IROHF                                      I                0
Alpha Orbital Energies                     R   N=         178
 -9.19521786E+01 -2.05700483E+01 -2.05647733E+01 -1.13678523E+01 -1.13531407E+01
 -1.12663833E+01 -1.12612272E+01 -1.12526672E+01 -1.12303131E+01 -1.12254554E+01
 -8.96471121E+00 -6.64759641E+00 -6.64587074E+00 -6.64428446E+00 -1.39715906E+00
 -1.38583988E+00 -1.09371857E+00 -1.07722908E+00 -1.04392976E+00 -9.69953766E-01
 -8.97885143E-01 -8.35972315E-01 -7.60414752E-01 -7.25187078E-01 -6.77753866E-01
 -6.69524323E-01 -6.48121393E-01 -6.35884102E-01 -6.31967628E-01 -6.09555943E-01
 -5.91389470E-01 -5.58864011E-01 -5.45151158E-01 -5.29475355E-01 -5.25816800E-01
 -5.21856328E-01 -5.12422884E-01 -5.02963601E-01 -4.91253668E-01 -4.61560047E-01
 -4.29551694E-01 -4.04103541E-01 -3.64434072E-01  1.41079341E-01  1.46190267E-01
  1.68461742E-01  2.17541040E-01  2.45200382E-01  2.55458102E-01  2.72268732E-01
  2.85992538E-01  2.95596562E-01  2.97425073E-01  3.03296335E-01  3.07017293E-01
  3.16958957E-01  3.34144237E-01  3.36164126E-01  3.40136464E-01  3.51794083E-01
  3.85612973E-01  4.05515863E-01  4.43771230E-01  4.59213373E-01  4.70217145E-01
  4.98924070E-01  5.41470955E-01  5.69701277E-01  5.94649307E-01  6.19005212E-01