12256                                                                   
Freq      RMP2-FC                                                     6-31G(d)            
Number of atoms                            I               18
Info1-9                                    I   N=           9
          30          28        1002           0           0         100
           6           2           1
Charge                                     I                0
Multiplicity                               I                1
Number of electrons                        I               50
Number of alpha electrons                  I               25
Number of beta electrons                   I               25
Number of basis functions                  I              114
Number of independent functions            I              114
Number of point charges in /Mol/           I                0
Number of translation vectors              I                0
Atomic numbers                             I   N=          18
           8           6           6           6           6           6
           1           1           1           1           1           1
           1           1           1           1           1           1
Nuclear charges                            R   N=          18
  8.00000000E+00  6.00000000E+00  6.00000000E+00  6.00000000E+00  6.00000000E+00
  6.00000000E+00  1.00000000E+00  1.00000000E+00  1.00000000E+00  1.00000000E+00
  1.00000000E+00  1.00000000E+00  1.00000000E+00  1.00000000E+00  1.00000000E+00
  1.00000000E+00  1.00000000E+00  1.00000000E+00
Current cartesian coordinates              R   N=          54
  5.61026557E-01 -6.99255924E-01 -3.92855264E-01 -1.85187149E+00 -2.49170838E-02
  6.24644552E-01 -2.77028922E+00  2.50259632E+00 -4.03961851E-01 -3.61326169E+00
 -2.17675437E+00 -7.69076395E-02  2.61477837E+00  7.26233640E-01  5.98061378E-01
  5.02605424E+00 -4.91060103E-01 -3.49497793E-01 -1.69349727E+00  9.14066122E-02
  2.69994462E+00 -4.66470562E+00  2.92900948E+00  3.07962834E-01 -1.52503200E+00
  4.05622010E+00  1.44055316E-01 -2.84161952E+00  2.41600954E+00 -2.46792260E+00
 -5.50896283E+00 -1.85214521E+00  6.80870200E-01 -2.88891486E+00 -3.96034826E+00
  6.67717110E-01 -3.73725329E+00 -2.32880223E+00 -2.13395614E+00  2.51792619E+00
  2.70809600E+00 -1.56213792E-02  2.54766300E+00  7.12615076E-01  2.67842008E+00
  6.68151066E+00  5.33431228E-01  3.45858993E-01  5.13306928E+00 -2.44860242E+00
  2.94545688E-01  5.05914251E+00 -4.79432955E-01 -2.41306450E+00
Force Field                                I                0
Int Atom Types                             I   N=          18
           0           0           0           0           0           0
           0           0           0           0           0           0
           0           0           0           0           0           0
MM charges                                 R   N=          18
  0.00000000E+00  0.00000000E+00  0.00000000E+00  0.00000000E+00  0.00000000E+00
  0.00000000E+00  0.00000000E+00  0.00000000E+00  0.00000000E+00  0.00000000E+00
  0.00000000E+00  0.00000000E+00  0.00000000E+00  0.00000000E+00  0.00000000E+00
  0.00000000E+00  0.00000000E+00  0.00000000E+00
Integer atomic weights                     I   N=          18
          16          12          12          12          12          12
           1           1           1           1           1           1
           1           1           1           1           1           1
Real atomic weights                        R   N=          18
  1.59949146E+01  1.20000000E+01  1.20000000E+01  1.20000000E+01  1.20000000E+01
  1.20000000E+01  1.00782504E+00  1.00782504E+00  1.00782504E+00  1.00782504E+00
  1.00782504E+00  1.00782504E+00  1.00782504E+00  1.00782504E+00  1.00782504E+00
  1.00782504E+00  1.00782504E+00  1.00782504E+00
Atom fragment info                         I   N=          18
           0           0           0           0           0           0
           0           0           0           0           0           0
           0           0           0           0           0           0
Atom residue num                           I   N=          18
           0           0           0           0           0           0
           0           0           0           0           0           0
           0           0           0           0           0           0
Nuclear spins                              I   N=          18
           0           0           0           0           0           0
           1           1           1           1           1           1
           1           1           1           1           1           1
Nuclear ZEff                               R   N=          18
 -5.60000000E+00 -3.60000000E+00 -3.60000000E+00 -3.60000000E+00 -3.60000000E+00
 -3.60000000E+00 -1.00000000E+00 -1.00000000E+00 -1.00000000E+00 -1.00000000E+00
 -1.00000000E+00 -1.00000000E+00 -1.00000000E+00 -1.00000000E+00 -1.00000000E+00
 -1.00000000E+00 -1.00000000E+00 -1.00000000E+00
Nuclear QMom                               R   N=          18
  0.00000000E+00  0.00000000E+00  0.00000000E+00  0.00000000E+00  0.00000000E+00
  0.00000000E+00  0.00000000E+00  0.00000000E+00  0.00000000E+00  0.00000000E+00
  0.00000000E+00  0.00000000E+00  0.00000000E+00  0.00000000E+00  0.00000000E+00
  0.00000000E+00  0.00000000E+00  0.00000000E+00
Nuclear GFac                               R   N=          18
  0.00000000E+00  0.00000000E+00  0.00000000E+00  0.00000000E+00  0.00000000E+00
  0.00000000E+00  2.79284600E+00  2.79284600E+00  2.79284600E+00  2.79284600E+00
  2.79284600E+00  2.79284600E+00  2.79284600E+00  2.79284600E+00  2.79284600E+00
  2.79284600E+00  2.79284600E+00  2.79284600E+00
MicOpt                                     I   N=          18
          -1          -1          -1          -1          -1          -1
          -1          -1          -1          -1          -1          -1
          -1          -1          -1          -1          -1          -1
Number of contracted shells                I               48
Number of primitive shells                 I              114
Pure/Cartesian d shells                    I                1
Pure/Cartesian f shells                    I                0
Highest angular momentum                   I                2
Largest degree of contraction              I                6
Shell types                                I   N=          48
           0          -1          -1           2           0          -1
          -1           2           0          -1          -1           2
           0          -1          -1           2           0          -1
          -1           2           0          -1          -1           2
           0           0           0           0           0           0
           0           0           0           0           0           0
           0           0           0           0           0           0
           0           0           0           0           0           0
Number of primitives per shell             I   N=          48
           6           3           1           1           6           3
           1           1           6           3           1           1
           6           3           1           1           6           3
           1           1           6           3           1           1
           3           1           3           1           3           1
           3           1           3           1           3           1
           3           1           3           1           3           1
           3           1           3           1           3           1
Shell to atom map                          I   N=          48
           1           1           1           1           2           2
           2           2           3           3           3           3
           4           4           4           4           5           5
           5           5           6           6           6           6
           7           7           8           8           9           9
          10          10          11          11          12          12
          13          13          14          14          15          15
          16          16          17          17          18          18
Primitive exponents                        R   N=         114
  5.48467166E+03  8.25234946E+02  1.88046958E+02  5.29645000E+01  1.68975704E+01
  5.79963534E+00  1.55396162E+01  3.59993359E+00  1.01376175E+00  2.70005823E-01
  8.00000000E-01  3.04752488E+03  4.57369518E+02  1.03948685E+02  2.92101553E+01
  9.28666296E+00  3.16392696E+00  7.86827235E+00  1.88128854E+00  5.44249258E-01
  1.68714478E-01  8.00000000E-01  3.04752488E+03  4.57369518E+02  1.03948685E+02
  2.92101553E+01  9.28666296E+00  3.16392696E+00  7.86827235E+00  1.88128854E+00
  5.44249258E-01  1.68714478E-01  8.00000000E-01  3.04752488E+03  4.57369518E+02
  1.03948685E+02  2.92101553E+01  9.28666296E+00  3.16392696E+00  7.86827235E+00
  1.88128854E+00  5.44249258E-01  1.68714478E-01  8.00000000E-01  3.04752488E+03
  4.57369518E+02  1.03948685E+02  2.92101553E+01  9.28666296E+00  3.16392696E+00
  7.86827235E+00  1.88128854E+00  5.44249258E-01  1.68714478E-01  8.00000000E-01
  3.04752488E+03  4.57369518E+02  1.03948685E+02  2.92101553E+01  9.28666296E+00
  3.16392696E+00  7.86827235E+00  1.88128854E+00  5.44249258E-01  1.68714478E-01
  8.00000000E-01  1.87311370E+01  2.82539436E+00  6.40121692E-01  1.61277759E-01
  1.87311370E+01  2.82539436E+00  6.40121692E-01  1.61277759E-01  1.87311370E+01
  2.82539436E+00  6.40121692E-01  1.61277759E-01  1.87311370E+01  2.82539436E+00
  6.40121692E-01  1.61277759E-01  1.87311370E+01  2.82539436E+00  6.40121692E-01
  1.61277759E-01  1.87311370E+01  2.82539436E+00  6.40121692E-01  1.61277759E-01
  1.87311370E+01  2.82539436E+00  6.40121692E-01  1.61277759E-01  1.87311370E+01
  2.82539436E+00  6.40121692E-01  1.61277759E-01  1.87311370E+01  2.82539436E+00
  6.40121692E-01  1.61277759E-01  1.87311370E+01  2.82539436E+00  6.40121692E-01
  1.61277759E-01  1.87311370E+01  2.82539436E+00  6.40121692E-01  1.61277759E-01
  1.87311370E+01  2.82539436E+00  6.40121692E-01  1.61277759E-01
Contraction coefficients                   R   N=         114
  1.83107443E-03  1.39501722E-02  6.84450781E-02  2.32714336E-01  4.70192898E-01
  3.58520853E-01 -1.10777550E-01 -1.48026263E-01  1.13076702E+00  1.00000000E+00
  1.00000000E+00  1.83473713E-03  1.40373228E-02  6.88426223E-02  2.32184443E-01
  4.67941348E-01  3.62311985E-01 -1.19332420E-01 -1.60854152E-01  1.14345644E+00
  1.00000000E+00  1.00000000E+00  1.83473713E-03  1.40373228E-02  6.88426223E-02
  2.32184443E-01  4.67941348E-01  3.62311985E-01 -1.19332420E-01 -1.60854152E-01
  1.14345644E+00  1.00000000E+00  1.00000000E+00  1.83473713E-03  1.40373228E-02
  6.88426223E-02  2.32184443E-01  4.67941348E-01  3.62311985E-01 -1.19332420E-01
 -1.60854152E-01  1.14345644E+00  1.00000000E+00  1.00000000E+00  1.83473713E-03
  1.40373228E-02  6.88426223E-02  2.32184443E-01  4.67941348E-01  3.62311985E-01
 -1.19332420E-01 -1.60854152E-01  1.14345644E+00  1.00000000E+00  1.00000000E+00
  1.83473713E-03  1.40373228E-02  6.88426223E-02  2.32184443E-01  4.67941348E-01
  3.62311985E-01 -1.19332420E-01 -1.60854152E-01  1.14345644E+00  1.00000000E+00
  1.00000000E+00  3.34946043E-02  2.34726953E-01  8.13757326E-01  1.00000000E+00
  3.34946043E-02  2.34726953E-01  8.13757326E-01  1.00000000E+00  3.34946043E-02
  2.34726953E-01  8.13757326E-01  1.00000000E+00  3.34946043E-02  2.34726953E-01
  8.13757326E-01  1.00000000E+00  3.34946043E-02  2.34726953E-01  8.13757326E-01
  1.00000000E+00  3.34946043E-02  2.34726953E-01  8.13757326E-01  1.00000000E+00
  3.34946043E-02  2.34726953E-01  8.13757326E-01  1.00000000E+00  3.34946043E-02
  2.34726953E-01  8.13757326E-01  1.00000000E+00  3.34946043E-02  2.34726953E-01
  8.13757326E-01  1.00000000E+00  3.34946043E-02  2.34726953E-01  8.13757326E-01
  1.00000000E+00  3.34946043E-02  2.34726953E-01  8.13757326E-01  1.00000000E+00
  3.34946043E-02  2.34726953E-01  8.13757326E-01  1.00000000E+00
P(S=P) Contraction coefficients            R   N=         114
  0.00000000E+00  0.00000000E+00  0.00000000E+00  0.00000000E+00  0.00000000E+00
  0.00000000E+00  7.08742682E-02  3.39752839E-01  7.27158577E-01  1.00000000E+00
  0.00000000E+00  0.00000000E+00  0.00000000E+00  0.00000000E+00  0.00000000E+00
  0.00000000E+00  0.00000000E+00  6.89990666E-02  3.16423961E-01  7.44308291E-01
  1.00000000E+00  0.00000000E+00  0.00000000E+00  0.00000000E+00  0.00000000E+00
  0.00000000E+00  0.00000000E+00  0.00000000E+00  6.89990666E-02  3.16423961E-01
  7.44308291E-01  1.00000000E+00  0.00000000E+00  0.00000000E+00  0.00000000E+00
  0.00000000E+00  0.00000000E+00  0.00000000E+00  0.00000000E+00  6.89990666E-02
  3.16423961E-01  7.44308291E-01  1.00000000E+00  0.00000000E+00  0.00000000E+00
  0.00000000E+00  0.00000000E+00  0.00000000E+00  0.00000000E+00  0.00000000E+00
  6.89990666E-02  3.16423961E-01  7.44308291E-01  1.00000000E+00  0.00000000E+00
  0.00000000E+00  0.00000000E+00  0.00000000E+00  0.00000000E+00  0.00000000E+00
  0.00000000E+00  6.89990666E-02  3.16423961E-01  7.44308291E-01  1.00000000E+00
  0.00000000E+00  0.00000000E+00  0.00000000E+00  0.00000000E+00  0.00000000E+00
  0.00000000E+00  0.00000000E+00  0.00000000E+00  0.00000000E+00  0.00000000E+00
  0.00000000E+00  0.00000000E+00  0.00000000E+00  0.00000000E+00  0.00000000E+00
  0.00000000E+00  0.00000000E+00  0.00000000E+00  0.00000000E+00  0.00000000E+00
  0.00000000E+00  0.00000000E+00  0.00000000E+00  0.00000000E+00  0.00000000E+00
  0.00000000E+00  0.00000000E+00  0.00000000E+00  0.00000000E+00  0.00000000E+00
  0.00000000E+00  0.00000000E+00  0.00000000E+00  0.00000000E+00  0.00000000E+00
  0.00000000E+00  0.00000000E+00  0.00000000E+00  0.00000000E+00  0.00000000E+00
  0.00000000E+00  0.00000000E+00  0.00000000E+00  0.00000000E+00  0.00000000E+00
  0.00000000E+00  0.00000000E+00  0.00000000E+00  0.00000000E+00
Coordinates of each shell                  R   N=         144
  5.61026557E-01 -6.99255924E-01 -3.92855264E-01  5.61026557E-01 -6.99255924E-01
 -3.92855264E-01  5.61026557E-01 -6.99255924E-01 -3.92855264E-01  5.61026557E-01
 -6.99255924E-01 -3.92855264E-01 -1.85187149E+00 -2.49170838E-02  6.24644552E-01
 -1.85187149E+00 -2.49170838E-02  6.24644552E-01 -1.85187149E+00 -2.49170838E-02
  6.24644552E-01 -1.85187149E+00 -2.49170838E-02  6.24644552E-01 -2.77028922E+00
  2.50259632E+00 -4.03961851E-01 -2.77028922E+00  2.50259632E+00 -4.03961851E-01
 -2.77028922E+00  2.50259632E+00 -4.03961851E-01 -2.77028922E+00  2.50259632E+00
 -4.03961851E-01 -3.61326169E+00 -2.17675437E+00 -7.69076395E-02 -3.61326169E+00
 -2.17675437E+00 -7.69076395E-02 -3.61326169E+00 -2.17675437E+00 -7.69076395E-02
 -3.61326169E+00 -2.17675437E+00 -7.69076395E-02  2.61477837E+00  7.26233640E-01
  5.98061378E-01  2.61477837E+00  7.26233640E-01  5.98061378E-01  2.61477837E+00
  7.26233640E-01  5.98061378E-01  2.61477837E+00  7.26233640E-01  5.98061378E-01
  5.02605424E+00 -4.91060103E-01 -3.49497793E-01  5.02605424E+00 -4.91060103E-01
 -3.49497793E-01  5.02605424E+00 -4.91060103E-01 -3.49497793E-01  5.02605424E+00
 -4.91060103E-01 -3.49497793E-01 -1.69349727E+00  9.14066122E-02  2.69994462E+00
 -1.69349727E+00  9.14066122E-02  2.69994462E+00 -4.66470562E+00  2.92900948E+00
  3.07962834E-01 -4.66470562E+00  2.92900948E+00  3.07962834E-01 -1.52503200E+00
  4.05622010E+00  1.44055316E-01 -1.52503200E+00  4.05622010E+00  1.44055316E-01
 -2.84161952E+00  2.41600954E+00 -2.46792260E+00 -2.84161952E+00  2.41600954E+00
 -2.46792260E+00 -5.50896283E+00 -1.85214521E+00  6.80870200E-01 -5.50896283E+00
 -1.85214521E+00  6.80870200E-01 -2.88891486E+00 -3.96034826E+00  6.67717110E-01
 -2.88891486E+00 -3.96034826E+00  6.67717110E-01 -3.73725329E+00 -2.32880223E+00
 -2.13395614E+00 -3.73725329E+00 -2.32880223E+00 -2.13395614E+00  2.51792619E+00
  2.70809600E+00 -1.56213792E-02  2.51792619E+00  2.70809600E+00 -1.56213792E-02
  2.54766300E+00  7.12615076E-01  2.67842008E+00  2.54766300E+00  7.12615076E-01
  2.67842008E+00  6.68151066E+00  5.33431228E-01  3.45858993E-01  6.68151066E+00
  5.33431228E-01  3.45858993E-01  5.13306928E+00 -2.44860242E+00  2.94545688E-01
  5.13306928E+00 -2.44860242E+00  2.94545688E-01  5.05914251E+00 -4.79432955E-01
 -2.41306450E+00  5.05914251E+00 -4.79432955E-01 -2.41306450E+00
Constraint Structure                       R   N=          54
  5.61026557E-01 -6.99255924E-01 -3.92855264E-01 -1.85187149E+00 -2.49170838E-02
  6.24644552E-01 -2.77028922E+00  2.50259632E+00 -4.03961851E-01 -3.61326169E+00
 -2.17675437E+00 -7.69076395E-02  2.61477837E+00  7.26233640E-01  5.98061378E-01
  5.02605424E+00 -4.91060103E-01 -3.49497793E-01 -1.69349727E+00  9.14066122E-02
  2.69994462E+00 -4.66470562E+00  2.92900948E+00  3.07962834E-01 -1.52503200E+00
  4.05622010E+00  1.44055316E-01 -2.84161952E+00  2.41600954E+00 -2.46792260E+00
 -5.50896283E+00 -1.85214521E+00  6.80870200E-01 -2.88891486E+00 -3.96034826E+00
  6.67717110E-01 -3.73725329E+00 -2.32880223E+00 -2.13395614E+00  2.51792619E+00
  2.70809600E+00 -1.56213792E-02  2.54766300E+00  7.12615076E-01  2.67842008E+00
  6.68151066E+00  5.33431228E-01  3.45858993E-01  5.13306928E+00 -2.44860242E+00
  2.94545688E-01  5.05914251E+00 -4.79432955E-01 -2.41306450E+00
Num ILSW                                   I              100
ILSW                                       I   N=         100
           0           1           0           0           2           0
           0           0           0           0           0          -1
           0           0           0           0           0           0
           0           0           0           0           1           0
           1           0           0           0           0           0
           0           0      100000           0          -1           0
           0           0           0           0           0           0
           0           0           0           1           1           0
           0           0           1           0           0           0
           0           0           4          40           0           0
           0           0           0           0           0           0
           0           0           0           0           0           0
           0           0           0           0           0           0
           0           0           0           0           0           0
           0           0           0           0           0           0
           0           0           0           0           0           0
           0           0           0           0
Num RLSW                                   I               40
RLSW                                       R   N=          40
  1.00000000E+00  1.00000000E+00  1.00000000E+00  1.00000000E+00  1.00000000E+00
  0.00000000E+00  0.00000000E+00  1.00000000E+00  0.00000000E+00  0.00000000E+00
  0.00000000E+00  0.00000000E+00  1.00000000E+00  0.00000000E+00  0.00000000E+00
  0.00000000E+00  0.00000000E+00  1.00000000E+00  0.00000000E+00  0.00000000E+00
  0.00000000E+00  0.00000000E+00  1.00000000E+00  0.00000000E+00  0.00000000E+00
  0.00000000E+00  0.00000000E+00  1.00000000E+00  0.00000000E+00  0.00000000E+00
  0.00000000E+00  0.00000000E+00  0.00000000E+00  0.00000000E+00  0.00000000E+00
  0.00000000E+00  0.00000000E+00  0.00000000E+00  1.00000000E+00  1.00000000E+00
MxBond                                     I                4
NBond                                      I   N=          18
           2           4           4           4           4           4
           1           1           1           1           1           1
           1           1           1           1           1           1
IBond                                      I   N=          72
           2           5           0           0           1           3
           4           7           2           8           9          10
           2          11          12          13           1           6
          14          15           5          16          17          18
           2           0           0           0           3           0
           0           0           3           0           0           0
           3           0           0           0           4           0
           0           0           4           0           0           0
           4           0           0           0           5           0
           0           0           5           0           0           0
           6           0           0           0           6           0
           0           0           6           0           0           0
RBond                                      R   N=          72
  1.00000000E+00  1.00000000E+00  0.00000000E+00  0.00000000E+00  1.00000000E+00
  1.00000000E+00  1.00000000E+00  1.00000000E+00  1.00000000E+00  1.00000000E+00
  1.00000000E+00  1.00000000E+00  1.00000000E+00  1.00000000E+00  1.00000000E+00
  1.00000000E+00  1.00000000E+00  1.00000000E+00  1.00000000E+00  1.00000000E+00
  1.00000000E+00  1.00000000E+00  1.00000000E+00  1.00000000E+00  1.00000000E+00
  0.00000000E+00  0.00000000E+00  0.00000000E+00  1.00000000E+00  0.00000000E+00
  0.00000000E+00  0.00000000E+00  1.00000000E+00  0.00000000E+00  0.00000000E+00
  0.00000000E+00  1.00000000E+00  0.00000000E+00  0.00000000E+00  0.00000000E+00
  1.00000000E+00  0.00000000E+00  0.00000000E+00  0.00000000E+00  1.00000000E+00
  0.00000000E+00  0.00000000E+00  0.00000000E+00  1.00000000E+00  0.00000000E+00
  0.00000000E+00  0.00000000E+00  1.00000000E+00  0.00000000E+00  0.00000000E+00
  0.00000000E+00  1.00000000E+00  0.00000000E+00  0.00000000E+00  0.00000000E+00
  1.00000000E+00  0.00000000E+00  0.00000000E+00  0.00000000E+00  1.00000000E+00
  0.00000000E+00  0.00000000E+00  0.00000000E+00  1.00000000E+00  0.00000000E+00
  0.00000000E+00  0.00000000E+00
Virial Ratio                               R      2.001673108342483E+00
SCF Energy                                 R     -2.711795517546372E+02
MP2 Energy                                 R     -2.720161515443000E+02
Total Energy                               R     -2.720161515443000E+02
Post-SCF wavefunction norm                 R      1.591223494915069E+00
RMS Force                                  R      8.727155479092486E-08
RMS Density                                R      1.742793223541468E-09
External E-field                           R   N=          35
  0.00000000E+00  0.00000000E+00  0.00000000E+00  0.00000000E+00  0.00000000E+00
  0.00000000E+00  0.00000000E+00  0.00000000E+00  0.00000000E+00  0.00000000E+00
  0.00000000E+00  0.00000000E+00  0.00000000E+00  0.00000000E+00  0.00000000E+00
  0.00000000E+00  0.00000000E+00  0.00000000E+00  0.00000000E+00  0.00000000E+00
  0.00000000E+00  0.00000000E+00  0.00000000E+00  0.00000000E+00  0.00000000E+00
  0.00000000E+00  0.00000000E+00  0.00000000E+00  0.00000000E+00  0.00000000E+00
  0.00000000E+00  0.00000000E+00  0.00000000E+00  0.00000000E+00  0.00000000E+00
IOpCl                                      I                0
IROHF                                      I                0
Alpha Orbital Energies                     R   N=         114
 -2.05502946E+01 -1.12759761E+01 -1.12707913E+01 -1.12129131E+01 -1.12111010E+01
 -1.12089646E+01 -1.36032145E+00 -1.05842570E+00 -9.93115556E-01 -9.34384609E-01
 -8.33796886E-01 -7.89283392E-01 -6.73264625E-01 -6.43729008E-01 -6.16215741E-01
 -5.91255955E-01 -5.56858962E-01 -5.40976514E-01 -5.34433880E-01 -5.17041312E-01
 -5.12930501E-01 -4.86851640E-01 -4.74455722E-01 -4.55163769E-01 -4.09059234E-01
  2.29187063E-01  2.56495523E-01  2.75514961E-01  2.83230956E-01  2.93228302E-01
  3.10900709E-01  3.21503579E-01  3.29892532E-01  3.39443246E-01  3.52911870E-01
  3.54136493E-01  3.67070976E-01  3.83953776E-01  3.95868910E-01  4.28268989E-01
  4.42430778E-01  4.68543518E-01  6.90617028E-01  7.22135014E-01  7.51554444E-01
  7.56746845E-01  7.74078915E-01  7.94273887E-01  8.00488531E-01  8.45858847E-01
  8.95410953E-01  9.21806727E-01  9.48497879E-01  9.62440669E-01  9.89864205E-01
  1.00819128E+00  1.07920418E+00  1.10266331E+00  1.13258933E+00  1.15136421E+00
  1.16444481E+00  1.17906623E+00  1.18165454E+00  1.18936501E+00  1.19523337E+00
  1.20542491E+00  1.22611595E+00  1.23517286E+00  1.24309412E+00  1.27467693E+00
  1.33234646E+00  1.41978041E+00  1.45265164E+00  1.56313893E+00  1.60846147E+00
  1.67417369E+00  1.70754647E+00  1.73187786E+00  1.75837945E+00  1.89659024E+00
  2.01731838E+00  2.05258936E+00  2.06488882E+00  2.09433019E+00  2.13334941E+00
  2.22814764E+00  2.26043365E+00  2.28817500E+00  2.32326342E+00  2.35425747E+00
  2.40109254E+00  2.41798248E+00  2.45589260E+00  2.52860241E+00  2.53516217E+00
  2.58383179E+00  2.59596597E+00  2.60986753E+00  2.68428843E+00  2.69541771E+00
  2.76621981E+00  2.84616416E+00  2.89601954E+00  2.92944113E+00  2.98426897E+00
  3.08489295E+00  3.22753548E+00  3.37389115E+00  4.36773140E+00  4.61621089E+00
  4.62301415E+00  4.72671556E+00  4.83950490E+00  4.97565381E+00
Alpha MO coefficients                      R   N=       12996
  9.94671249E-01  2.12622059E-02 -1.26329693E-04  9.18570682E-04  8.28294177E-04
  3.41523637E-03  1.16892952E-04 -6.34454359E-04 -5.54829644E-04 -4.20738218E-03
 -3.94076201E-03 -3.92617243E-03 -4.96322389E-05  2.53664694E-05 -1.43970051E-04
 -3.16153042E-05  1.20949587E-04  3.37902229E-04 -1.01309845E-04 -1.51212170E-04
  6.81716624E-04  8.10334574E-05  8.36146994E-05  2.10847446E-06  8.92926440E-05
 -2.99366524E-05 -4.34498983E-05 -2.58018402E-05 -5.92481748E-05  1.18312624E-05
  1.41071969E-06  5.11092870E-05 -2.29563340E-05  2.96410944E-05  1.54342874E-06
 -1.90607729E-04 -9.65872093E-05  8.66679939E-05 -8.07339867E-05 -3.48838753E-05
 -3.23172889E-05 -1.47798485E-05  3.34103869E-05 -7.83804604E-06  1.27388262E-06
  1.07212101E-05  1.00635462E-04  1.50078601E-05 -1.59129843E-05 -1.69376146E-05
 -2.06365693E-04 -3.49463546E-04 -3.90070338E-05  9.12601492E-05 -4.95656434E-05
 -4.24098151E-06 -2.30591313E-06 -3.62884378E-05 -6.25243389E-06  1.03372546E-05
 -2.13836188E-05  1.91999860E-04 -3.00588502E-04 -2.11138882E-04 -1.45421739E-04
  4.32680440E-04  3.65362138E-05 -1.47785398E-05  1.18748027E-05  6.37196577E-05
 -1.15392042E-05 -3.51405291E-05  5.53091478E-05  3.58669443E-05  3.45975339E-05
  1.11654332E-05  1.04226792E-04 -8.96395996E-06 -1.97627303E-05 -1.52192647E-05
 -2.45056354E-04  3.44167319E-04  8.06372282E-05  4.57755724E-05 -6.48932319E-05
  9.62998378E-06  7.04744405E-07  9.60945957E-06  8.67336330E-06  1.07401023E-05
 -6.26726414E-05 -1.17755183E-04  5.53328047E-06 -2.66479427E-06  1.27671060E-05
  2.10070332E-05  2.02082456E-05 -6.99081217E-05 -1.30351830E-05 -1.61849848E-04
  5.08878660E-05 -2.79097703E-06  5.65537665E-05 -2.64075694E-06 -4.43011088E-05
 -6.85741440E-05 -4.40171556E-05 -9.75256946E-05 -1.02242046E-05 -1.53672725E-04
  5.08673558E-05 -2.80724132E-06  5.55409296E-05 -1.46940923E-05 -1.66878592E-04
  3.75884652E-05 -1.33974376E-04  6.30689876E-05  1.18430925E-04  2.28058338E-03
 -5.21202220E-04 -4.84764919E-05 -3.48764313E-04 -6.46692469E-04 -1.25998163E-04
 -1.61804145E-04  1.23030001E-04  3.14706759E-04 -1.51634336E-04  9.96047851E-01
  2.78158343E-02  7.07670543E-04 -5.89780290E-05 -3.63358680E-04 -1.80122553E-02
  2.71824574E-04 -8.12529621E-04  1.09971193E-03 -1.11318659E-03 -1.20442762E-03
 -1.17586267E-03 -2.01611833E-06  5.95691311E-07  4.73111146E-05  4.69810931E-03
  2.37053280E-05  2.05773383E-05 -1.38705635E-04  3.99940994E-05  5.32071056E-03
  1.07363825E-03 -2.03948436E-03  7.14914210E-04 -1.84973662E-04 -3.66608914E-04
 -1.83695169E-04  7.31547279E-05 -5.14664469E-05  1.46118983E-04  4.57308468E-03
  1.85207067E-04  1.69076122E-05  1.00805050E-04  1.20058704E-05  3.93221814E-03
  1.32011744E-03  1.39056411E-03  2.06806371E-04 -2.70098682E-04 -2.78762812E-04
 -1.17809832E-04 -1.76440206E-04 -1.00861671E-04 -9.98364366E-05 -2.00269333E-03
 -4.74665138E-04  7.30724600E-05 -1.19748343E-05 -8.07641189E-05  1.44142281E-03
 -1.21074406E-03  3.55234851E-05  6.32853872E-04  1.10726695E-04 -9.08829366E-05
 -5.87407374E-05  5.16637190E-05 -9.11204505E-06  5.97356434E-06  1.52214676E-05
  2.35118915E-06 -4.49786776E-05 -3.94580518E-05 -9.61707365E-06  4.52574393E-04
  3.60097778E-05  4.33500132E-04  7.17274183E-05 -8.11173371E-06  5.11890872E-06
 -6.14620664E-06 -6.51736265E-06  2.21706243E-05  2.14528821E-05  3.09043448E-04
  2.59449588E-03 -1.52720539E-04  6.24745509E-05 -1.82282760E-04 -2.87790888E-04
 -2.35474876E-04  3.52644932E-05 -1.02002684E-04  1.05061491E-04 -1.50022891E-04
 -3.51964463E-05 -1.76062634E-04  8.97310469E-06 -5.58733782E-05 -2.13269976E-04
 -1.57942053E-04 -6.10070114E-04 -5.91935030E-05 -1.30030377E-04  3.74734027E-05
  1.34147725E-04  8.67335565E-06 -3.48795238E-06 -1.41051354E-04  1.98807359E-04
  1.21440494E-04  1.32925986E-04  1.04936279E-04  1.18912638E-03  1.00303105E-04
 -3.42319159E-04 -3.80431960E-04 -4.71319045E-04 -1.92955662E-04 -7.16788509E-05
 -3.31319228E-04 -2.09763755E-04 -2.72961229E-04  1.89471538E-03 -3.00485842E-04
 -6.87796326E-05 -6.39526911E-05 -6.67081598E-05  1.01834416E-03  1.16720848E-03
  4.25646061E-04  6.20191713E-04  1.21613595E-04 -1.01772948E-04 -5.54996742E-05
  2.84950568E-05 -8.66728887E-06  1.08831620E-05 -7.78551747E-05 -8.87307790E-05
 -1.00201570E-04  1.14557784E-05 -7.03383211E-06  4.29908386E-04  1.40938534E-04
 -4.05635065E-05 -1.64895682E-04 -9.02957035E-05  8.39902744E-07 -8.32517554E-05
  2.70041133E-05 -1.22984918E-05  7.19090466E-06  5.17987890E-05  3.09236037E-05
  6.94759400E-05  6.25924202E-06 -2.28586162E-05  3.80605002E-04 -2.66431523E-04
  3.67044120E-04  1.20328713E-04 -3.85936143E-06  3.68673199E-05  1.03183437E-05
 -3.93953499E-06 -3.10204812E-05  1.10287146E-05  9.95896314E-01  2.75326552E-02