
    -----------------------------------------------------------------------
          Psi4: An Open-Source Ab Initio Electronic Structure Package
                               Psi4 1.3.2 release

                         Git: Rev {HEAD} ecbda83 


    R. M. Parrish, L. A. Burns, D. G. A. Smith, A. C. Simmonett,
    A. E. DePrince III, E. G. Hohenstein, U. Bozkaya, A. Yu. Sokolov,
    R. Di Remigio, R. M. Richard, J. F. Gonthier, A. M. James,
    H. R. McAlexander, A. Kumar, M. Saitow, X. Wang, B. P. Pritchard,
    P. Verma, H. F. Schaefer III, K. Patkowski, R. A. King, E. F. Valeev,
    F. A. Evangelista, J. M. Turney, T. D. Crawford, and C. D. Sherrill,
    J. Chem. Theory Comput. 13(7) pp 3185--3197 (2017).
    (doi: 10.1021/acs.jctc.7b00174)


                         Additional Contributions by
    P. Kraus, H. Kruse, M. H. Lechner, M. C. Schieber, R. A. Shaw,
    A. Alenaizan, R. Galvelis, Z. L. Glick, S. Lehtola, and J. P. Misiewicz

    -----------------------------------------------------------------------


    Psi4 started on: Friday, 26 February 2021 09:36PM

    Process ID: 5331
    Host:       node142.bme.utexas.edu
    PSIDATADIR: /home/xy3866/psi4conda/share/psi4
    Memory:     500.0 MiB
    Threads:    8
    
  ==> Input File <==

--------------------------------------------------------------------------
#psi4
#
memory 32 gb

molecule  {
0 1
  O        1.0008990     1.1197090    -0.0959030
  O       -1.6579716    -1.1143624    -0.1944835
  O       -1.2230690     1.6022640    -0.0675910
  C        0.8143200    -1.2427870    -0.1986520
  C       -0.4577570    -0.6687040     0.3963640
  C        1.7925350    -0.0950530     0.0479070
  C       -0.3121170     0.8099600     0.0626390
  H        0.6529500    -1.3959670    -1.2698370
  H        1.1362240    -2.1837260     0.2527190
  H       -0.4482060    -0.7692910     1.4955050
  H        2.2087130    -0.1135160     1.0603560
  H        2.6064290    -0.0309800    -0.6748690
  H       -2.2893650    -0.4737730    -0.1440310
units angstrom
no_reorient  #important for SAPT in psi4, default
symmetry c1  #important for SAPT in psi4, default
}

set PROPERTIES_ORIGIN ["COM"]
properties('MP2/aug-cc-pvtz', properties = ['dipole'])
--------------------------------------------------------------------------

  Memory set to  29.802 GiB by Python driver.
    SCF Algorithm Type (re)set to DF.

*** tstart() called on node142.bme.utexas.edu
*** at Fri Feb 26 21:36:30 2021

   => Loading Basis Set <=

    Name: AUG-CC-PVTZ
    Role: ORBITAL
    Keyword: BASIS
    atoms 1-3  entry O          line   327 file /home/xy3866/psi4conda/share/psi4/basis/aug-cc-pvtz.gbs 
    atoms 4-7  entry C          line   235 file /home/xy3866/psi4conda/share/psi4/basis/aug-cc-pvtz.gbs 
    atoms 8-13 entry H          line    36 file /home/xy3866/psi4conda/share/psi4/basis/aug-cc-pvtz.gbs 


         ---------------------------------------------------------
                                   SCF
               by Justin Turney, Rob Parrish, Andy Simmonett
                          and Daniel G. A. Smith
                              RHF Reference
                        8 Threads,  30517 MiB Core
         ---------------------------------------------------------

  ==> Geometry <==

    Molecular point group: c1
    Full point group: C1

    Geometry (in Angstrom), charge = 0, multiplicity = 1:

       Center              X                  Y                   Z               Mass       
    ------------   -----------------  -----------------  -----------------  -----------------
         O            1.041395533933     1.057488486730    -0.083149631886    15.994914619570
         O           -1.617475066067    -1.176582913270    -0.181730131886    15.994914619570
         O           -1.182572466067     1.540043486730    -0.054837631886    15.994914619570
         C            0.854816533933    -1.305007513270    -0.185898631886    12.000000000000
         C           -0.417260466067    -0.730924513270     0.409117368114    12.000000000000
         C            1.833031533933    -0.157273513270     0.060660368114    12.000000000000
         C           -0.271620466067     0.747739486730     0.075392368114    12.000000000000
         H            0.693446533933    -1.458187513270    -1.257083631886     1.007825032230
         H            1.176720533933    -2.245946513270     0.265472368114     1.007825032230
         H           -0.407709466067    -0.831511513270     1.508258368114     1.007825032230
         H            2.249209533933    -0.175736513270     1.073109368114     1.007825032230
         H            2.646925533933    -0.093200513270    -0.662115631886     1.007825032230
         H           -2.248868466067    -0.535993513270    -0.131277631886     1.007825032230

  Running in c1 symmetry.

  Rotational constants: A =      0.13083  B =      0.10423  C =      0.06175 [cm^-1]
  Rotational constants: A =   3922.21139  B =   3124.75365  C =   1851.11282 [MHz]
  Nuclear repulsion =  318.445075491932926

  Charge       = 0
  Multiplicity = 1
  Electrons    = 54
  Nalpha       = 27
  Nbeta        = 27

  ==> Algorithm <==

  SCF Algorithm Type is DF.
  DIIS enabled.
  MOM disabled.
  Fractional occupation disabled.
  Guess Type is SAD.
  Energy threshold   = 1.00e-10
  Density threshold  = 1.00e-10
  Integral threshold = 0.00e+00

  ==> Primary Basis <==

  Basis Set: AUG-CC-PVTZ
    Blend: AUG-CC-PVTZ
    Number of shells: 152
    Number of basis function: 460
    Number of Cartesian functions: 535
    Spherical Harmonics?: true
    Max angular momentum: 3

   => Loading Basis Set <=

    Name: (AUG-CC-PVTZ AUX)
    Role: JKFIT
    Keyword: DF_BASIS_SCF
    atoms 1-3  entry O          line   286 file /home/xy3866/psi4conda/share/psi4/basis/aug-cc-pvtz-jkfit.gbs 
    atoms 4-7  entry C          line   162 file /home/xy3866/psi4conda/share/psi4/basis/aug-cc-pvtz-jkfit.gbs 
    atoms 8-13 entry H          line    70 file /home/xy3866/psi4conda/share/psi4/basis/aug-cc-pvtz-jkfit.gbs 

  ==> Pre-Iterations <==

   -------------------------------------------------------
    Irrep   Nso     Nmo     Nalpha   Nbeta   Ndocc  Nsocc
   -------------------------------------------------------
     A        460     460       0       0       0       0
   -------------------------------------------------------
    Total     460     460      27      27      27       0
   -------------------------------------------------------

  ==> Integral Setup <==

  DFHelper Memory: AOs need 1.620 GiB; user supplied 22.352 GiB. Using in-core AOs.

  ==> MemDFJK: Density-Fitted J/K Matrices <==

    J tasked:                   Yes
    K tasked:                   Yes
    wK tasked:                   No
    OpenMP threads:               8
    Memory [MiB]:             22888
    Algorithm:                 Core
    Schwarz Cutoff:           1E-12
    Mask sparsity (%):       1.6181
    Fitting Condition:        1E-10

   => Auxiliary Basis Set <=

  Basis Set: (AUG-CC-PVTZ AUX)
    Blend: AUG-CC-PVTZ-JKFIT
    Number of shells: 294
    Number of basis function: 1004
    Number of Cartesian functions: 1247
    Spherical Harmonics?: true
    Max angular momentum: 4

  Minimum eigenvalue in the overlap matrix is 5.6011385650E-06.
  Using Symmetric Orthogonalization.

  SCF Guess: Superposition of Atomic Densities via on-the-fly atomic UHF.

  ==> Iterations <==

                           Total Energy        Delta E     RMS |[F,P]|

   @DF-RHF iter SAD:  -379.07434798430944   -3.79074e+02   0.00000e+00 
   @DF-RHF iter   1:  -379.49046720587580   -4.16119e-01   1.45252e-03 DIIS
   @DF-RHF iter   2:  -379.64181140731500   -1.51344e-01   8.72595e-04 DIIS
   @DF-RHF iter   3:  -379.69454195879575   -5.27306e-02   1.61977e-04 DIIS
   @DF-RHF iter   4:  -379.69774176350171   -3.19980e-03   7.06675e-05 DIIS
   @DF-RHF iter   5:  -379.69831116272803   -5.69399e-04   1.46448e-05 DIIS
   @DF-RHF iter   6:  -379.69836230516296   -5.11424e-05   7.37716e-06 DIIS
   @DF-RHF iter   7:  -379.69837298646286   -1.06813e-05   2.86105e-06 DIIS
   @DF-RHF iter   8:  -379.69837571520196   -2.72874e-06   1.07190e-06 DIIS
   @DF-RHF iter   9:  -379.69837607223701   -3.57035e-07   3.52790e-07 DIIS
   @DF-RHF iter  10:  -379.69837609940259   -2.71656e-08   1.06337e-07 DIIS
   @DF-RHF iter  11:  -379.69837610179479   -2.39220e-09   3.54493e-08 DIIS
   @DF-RHF iter  12:  -379.69837610203109   -2.36298e-10   1.13746e-08 DIIS
   @DF-RHF iter  13:  -379.69837610206895   -3.78577e-11   3.87136e-09 DIIS
   @DF-RHF iter  14:  -379.69837610207475   -5.79803e-12   1.59520e-09 DIIS
   @DF-RHF iter  15:  -379.69837610207526   -5.11591e-13   6.42131e-10 DIIS
   @DF-RHF iter  16:  -379.69837610207691   -1.64846e-12   2.38081e-10 DIIS
   @DF-RHF iter  17:  -379.69837610207514    1.76215e-12   1.05225e-10 DIIS
   @DF-RHF iter  18:  -379.69837610207617   -1.02318e-12   3.82966e-11 DIIS
  Energy and wave function converged.


  ==> Post-Iterations <==

    Orbital Energies [Eh]
    ---------------------

    Doubly Occupied:                                                      

       1A    -20.618825     2A    -20.571572     3A    -20.557389  
       4A    -11.389919     5A    -11.320570     6A    -11.317800  
       7A    -11.260919     8A     -1.468903     9A     -1.400649  
      10A     -1.370373    11A     -1.097058    12A     -0.990378  
      13A     -0.862829    14A     -0.805022    15A     -0.735084  
      16A     -0.725628    17A     -0.690388    18A     -0.659142  
      19A     -0.620916    20A     -0.604580    21A     -0.585207  
      22A     -0.558091    23A     -0.537400    24A     -0.520253  
      25A     -0.479215    26A     -0.466907    27A     -0.444772  

    Virtual:                                                              

      28A      0.022279    29A      0.032595    30A      0.037605  
      31A      0.043304    32A      0.056747    33A      0.058422  
      34A      0.076972    35A      0.086440    36A      0.092067  
      37A      0.111659    38A      0.114703    39A      0.117121  
      40A      0.119123    41A      0.123485    42A      0.123846  
      43A      0.132740    44A      0.135846    45A      0.142724  
      46A      0.152880    47A      0.160242    48A      0.171726  
      49A      0.180812    50A      0.184200    51A      0.206810  
      52A      0.216878    53A      0.225124    54A      0.234663  
      55A      0.243870    56A      0.245503    57A      0.251365  
      58A      0.261143    59A      0.263326    60A      0.270515  
      61A      0.272005    62A      0.285278    63A      0.294538  
      64A      0.301305    65A      0.301933    66A      0.320480  
      67A      0.327042    68A      0.329366    69A      0.336305  
      70A      0.339229    71A      0.346310    72A      0.347000  
      73A      0.357042    74A      0.369256    75A      0.378440  
      76A      0.388511    77A      0.394422    78A      0.398598  
      79A      0.403864    80A      0.407313    81A      0.419259  
      82A      0.427456    83A      0.439879    84A      0.449019  
      85A      0.454334    86A      0.456684    87A      0.471591  
      88A      0.476436    89A      0.481072    90A      0.482864  
      91A      0.489544    92A      0.491122    93A      0.504476  
      94A      0.515131    95A      0.524543    96A      0.528938  
      97A      0.544056    98A      0.554955    99A      0.562565  
     100A      0.567397   101A      0.572996   102A      0.582455  
     103A      0.595340   104A      0.603984   105A      0.607102  
     106A      0.612060   107A      0.624285   108A      0.632611  
     109A      0.639003   110A      0.645436   111A      0.663364  
     112A      0.679746   113A      0.694238   114A      0.730072  
     115A      0.731038   116A      0.740898   117A      0.745810  
     118A      0.758968   119A      0.776607   120A      0.788712  
     121A      0.804921   122A      0.807683   123A      0.817444  
     124A      0.820730   125A      0.831166   126A      0.839073  
     127A      0.858736   128A      0.868437   129A      0.876027  
     130A      0.879040   131A      0.882699   132A      0.891225  
     133A      0.896385   134A      0.916864   135A      0.926630  
     136A      0.931460   137A      0.943793   138A      0.951501  
     139A      0.961967   140A      0.965233   141A      0.982651  
     142A      0.997072   143A      1.001347   144A      1.017811  
     145A      1.021584   146A      1.034131   147A      1.038292  
     148A      1.051790   149A      1.069319   150A      1.072089  
     151A      1.080830   152A      1.082323   153A      1.091160  
     154A      1.099496   155A      1.110796   156A      1.119305  
     157A      1.129274   158A      1.136434   159A      1.148735  
     160A      1.157359   161A      1.169610   162A      1.171331  
     163A      1.182668   164A      1.188433   165A      1.205043  
     166A      1.216261   167A      1.224858   168A      1.236682  
     169A      1.246291   170A      1.254296   171A      1.268780  
     172A      1.275288   173A      1.291139   174A      1.319854  
     175A      1.328865   176A      1.348835   177A      1.359286  
     178A      1.363495   179A      1.382011   180A      1.396303  
     181A      1.407135   182A      1.424183   183A      1.430745  
     184A      1.443761   185A      1.451323   186A      1.461710  
     187A      1.472394   188A      1.480208   189A      1.505410  
     190A      1.508635   191A      1.509956   192A      1.530490  
     193A      1.551579   194A      1.554369   195A      1.561069  
     196A      1.589852   197A      1.605349   198A      1.617518  
     199A      1.625054   200A      1.647107   201A      1.654512  
     202A      1.662884   203A      1.676010   204A      1.685757  
     205A      1.698988   206A      1.703161   207A      1.715433  
     208A      1.722265   209A      1.730661   210A      1.737233  
     211A      1.766590   212A      1.782607   213A      1.790568  
     214A      1.792808   215A      1.822412   216A      1.839139  
     217A      1.843493   218A      1.852850   219A      1.870952  
     220A      1.875885   221A      1.882475   222A      1.899286  
     223A      1.918439   224A      1.942496   225A      1.950129  
     226A      1.979204   227A      1.987591   228A      1.992936  
     229A      2.004311   230A      2.029519   231A      2.046832  
     232A      2.066232   233A      2.075001   234A      2.087650  
     235A      2.114857   236A      2.146175   237A      2.153281  
     238A      2.162585   239A      2.188772   240A      2.194352  
     241A      2.218503   242A      2.245954   243A      2.253635  
     244A      2.273153   245A      2.290463   246A      2.332326  
     247A      2.334769   248A      2.383494   249A      2.393862  
     250A      2.420479   251A      2.451303   252A      2.470295  
     253A      2.488911   254A      2.510709   255A      2.518598  
     256A      2.533979   257A      2.555347   258A      2.585835  
     259A      2.599889   260A      2.606575   261A      2.631600  
     262A      2.663245   263A      2.673946   264A      2.692902  
     265A      2.716768   266A      2.731159   267A      2.749598  
     268A      2.783410   269A      2.783726   270A      2.803442  
     271A      2.827794   272A      2.844967   273A      2.872529  
     274A      2.899179   275A      2.921806   276A      2.926808  
     277A      2.958126   278A      2.964165   279A      2.985844  
     280A      2.992362   281A      3.030871   282A      3.049926  
     283A      3.082689   284A      3.108168   285A      3.111861  
     286A      3.130512   287A      3.170266   288A      3.173341  
     289A      3.195121   290A      3.214627   291A      3.262112  
     292A      3.297602   293A      3.327090   294A      3.345471  
     295A      3.364618   296A      3.423871   297A      3.453131  
     298A      3.461118   299A      3.495870   300A      3.506734  
     301A      3.549032   302A      3.552923   303A      3.596781  
     304A      3.614325   305A      3.645713   306A      3.654327  
     307A      3.681129   308A      3.696397   309A      3.716052  
     310A      3.730646   311A      3.746026   312A      3.761232  
     313A      3.778525   314A      3.804323   315A      3.813177  
     316A      3.837448   317A      3.882824   318A      3.900848  
     319A      3.909379   320A      3.923374   321A      3.943099  
     322A      3.953149   323A      3.968387   324A      4.006065  
     325A      4.021148   326A      4.024594   327A      4.043856  
     328A      4.053389   329A      4.086344   330A      4.095578  
     331A      4.110592   332A      4.150205   333A      4.168476  
     334A      4.188470   335A      4.204517   336A      4.221839  
     337A      4.236354   338A      4.242294   339A      4.270507  
     340A      4.299548   341A      4.315681   342A      4.328576  
     343A      4.354894   344A      4.378606   345A      4.382969  
     346A      4.414616   347A      4.445984   348A      4.467290  
     349A      4.472940   350A      4.484787   351A      4.505989  
     352A      4.522159   353A      4.560562   354A      4.572027  
     355A      4.606916   356A      4.626233   357A      4.666622  
     358A      4.706087   359A      4.732441   360A      4.738767  
     361A      4.758318   362A      4.796728   363A      4.810564  
     364A      4.852459   365A      4.874543   366A      4.883632  
     367A      4.891769   368A      4.908804   369A      4.945306  
     370A      4.962472   371A      4.980206   372A      5.002722  
     373A      5.033784   374A      5.053642   375A      5.079000  
     376A      5.089607   377A      5.097183   378A      5.135116  
     379A      5.152025   380A      5.188543   381A      5.239396  
     382A      5.249928   383A      5.310789   384A      5.322303  
     385A      5.338248   386A      5.396271   387A      5.411192  
     388A      5.439579   389A      5.461213   390A      5.502930  
     391A      5.536432   392A      5.545242   393A      5.561606  
     394A      5.589261   395A      5.609850   396A      5.680747  
     397A      5.704708   398A      5.734683   399A      5.782210  
     400A      5.845954   401A      5.884954   402A      5.898259  
     403A      5.928397   404A      5.991967   405A      6.026559  
     406A      6.056570   407A      6.151417   408A      6.180768  
     409A      6.260200   410A      6.340323   411A      6.399375  
     412A      6.523266   413A      6.575146   414A      6.647761  
     415A      6.694375   416A      6.720717   417A      6.763173  
     418A      6.785383   419A      6.858898   420A      6.916054  
     421A      6.945680   422A      6.960505   423A      6.981814  
     424A      7.021933   425A      7.030402   426A      7.080692  
     427A      7.146133   428A      7.163464   429A      7.229760  
     430A      7.274766   431A      7.324934   432A      7.379645  
     433A      7.405189   434A      7.414638   435A      7.473887  
     436A      7.512824   437A      7.517567   438A      7.592689  
     439A      7.634483   440A      7.646057   441A      7.687820  
     442A      7.732807   443A      7.771524   444A      7.782102  
     445A      7.861276   446A      7.900803   447A      7.936474  
     448A      8.013435   449A      8.044361   450A      8.234188  
     451A      8.350860   452A      8.482277   453A      8.745248  
     454A     15.004239   455A     15.835211   456A     16.760447  
     457A     17.715188   458A     18.488618   459A     18.915131  
     460A     19.807608  

    Final Occupation by Irrep:
              A 
    DOCC [    27 ]

  @DF-RHF Final Energy:  -379.69837610207617

   => Energetics <=

    Nuclear Repulsion Energy =            318.4450754919329256
    One-Electron Energy =               -1150.9673257705067044
    Two-Electron Energy =                 452.8238741764976112
    Total Energy =                       -379.6983761020761676

Computation Completed

*** tstop() called on node142.bme.utexas.edu at Fri Feb 26 21:36:42 2021
Module time:
	user time   =      78.25 seconds =       1.30 minutes
	system time =       2.77 seconds =       0.05 minutes
	total time  =         12 seconds =       0.20 minutes
Total time:
	user time   =      78.25 seconds =       1.30 minutes
	system time =       2.77 seconds =       0.05 minutes
	total time  =         12 seconds =       0.20 minutes
   => Loading Basis Set <=

    Name: (AUG-CC-PVTZ AUX)
    Role: RIFIT
    Keyword: DF_BASIS_MP2
    atoms 1-3  entry O          line   264 file /home/xy3866/psi4conda/share/psi4/basis/aug-cc-pvtz-ri.gbs 
    atoms 4-7  entry C          line   148 file /home/xy3866/psi4conda/share/psi4/basis/aug-cc-pvtz-ri.gbs 
    atoms 8-13 entry H          line    30 file /home/xy3866/psi4conda/share/psi4/basis/aug-cc-pvtz-ri.gbs 


*** tstart() called on node142.bme.utexas.edu
*** at Fri Feb 26 21:36:42 2021


  //>>>>>>>>>>>>>>>>>>>>>>>>>>>>>>>>>>>//
  //               DFMP2               //
  //<<<<<<<<<<<<<<<<<<<<<<<<<<<<<<<<<<<//

	 --------------------------------------------------------
	                          DF-MP2                         
	      2nd-Order Density-Fitted Moller-Plesset Theory     
	              RMP2 Wavefunction,   8 Threads             
	                                                         
	        Rob Parrish, Justin Turney, Andy Simmonett,      
	           Ed Hohenstein, and C. David Sherrill          
	 --------------------------------------------------------

   => Auxiliary Basis Set <=

  Basis Set: (AUG-CC-PVTZ AUX)
    Blend: AUG-CC-PVTZ-RI
    Number of shells: 280
    Number of basis function: 1018
    Number of Cartesian functions: 1282
    Spherical Harmonics?: true
    Max angular momentum: 4

	 --------------------------------------------------------
	                 NBF =   460, NAUX =  1018
	 --------------------------------------------------------
	   CLASS    FOCC     OCC    AOCC    AVIR     VIR    FVIR
	   PAIRS       0      27      27     433     433       0
	 --------------------------------------------------------

  DFHelper Memory: AOs need 1.620 GiB; user supplied 22.352 GiB. Using in-core AOs.


         ------------------------------------------------------------
                                     CPHF                           
                                  Rob Parrish                       
         ------------------------------------------------------------

  ==> Geometry <==

    Molecular point group: c1
    Full point group: C1

    Geometry (in Angstrom), charge = 0, multiplicity = 1:

       Center              X                  Y                   Z               Mass       
    ------------   -----------------  -----------------  -----------------  -----------------
         O            1.041395533933     1.057488486730    -0.083149631886    15.994914619570
         O           -1.617475066067    -1.176582913270    -0.181730131886    15.994914619570
         O           -1.182572466067     1.540043486730    -0.054837631886    15.994914619570
         C            0.854816533933    -1.305007513270    -0.185898631886    12.000000000000
         C           -0.417260466067    -0.730924513270     0.409117368114    12.000000000000
         C            1.833031533933    -0.157273513270     0.060660368114    12.000000000000
         C           -0.271620466067     0.747739486730     0.075392368114    12.000000000000
         H            0.693446533933    -1.458187513270    -1.257083631886     1.007825032230
         H            1.176720533933    -2.245946513270     0.265472368114     1.007825032230
         H           -0.407709466067    -0.831511513270     1.508258368114     1.007825032230
         H            2.249209533933    -0.175736513270     1.073109368114     1.007825032230
         H            2.646925533933    -0.093200513270    -0.662115631886     1.007825032230
         H           -2.248868466067    -0.535993513270    -0.131277631886     1.007825032230

  Nuclear repulsion =  318.445075491932926
  Reference energy  = -379.698376102076168

  ==> Basis Set <==

  Basis Set: AUG-CC-PVTZ
    Blend: AUG-CC-PVTZ
    Number of shells: 152
    Number of basis function: 460
    Number of Cartesian functions: 535
    Spherical Harmonics?: true
    Max angular momentum: 3

  ==> CGRSolver (by Rob Parrish) <==

   Number of roots    =         1
   Preconditioning    =    JACOBI
   Convergence cutoff =     1E-06
   Maximum iterations =       100

  ==> CPHFRHamiltonian (by Rob Parrish) <== 

  ==> MemDFJK: Density-Fitted J/K Matrices <==

    J tasked:                   Yes
    K tasked:                   Yes
    wK tasked:                   No
    OpenMP threads:               8
    Memory [MiB]:             22888
    Algorithm:                 Core
    Schwarz Cutoff:           1E-12
    Mask sparsity (%):       1.6181
    Fitting Condition:        1E-10

   => Auxiliary Basis Set <=

  Basis Set: (AUG-CC-PVTZ AUX)
    Blend: AUG-CC-PVTZ-JKFIT
    Number of shells: 294
    Number of basis function: 1004
    Number of Cartesian functions: 1247
    Spherical Harmonics?: true
    Max angular momentum: 4

  ==> CPHF Iterations <==

  => Iterations <=

             Iter  Converged  Remaining    Residual
  CGR           1          0          1   1.096E-01
  CGR           2          0          1   3.020E-02
  CGR           3          0          1   1.264E-02
  CGR           4          0          1   4.030E-03
  CGR           5          0          1   1.538E-03
  CGR           6          0          1   4.859E-04
  CGR           7          0          1   1.528E-04
  CGR           8          0          1   6.772E-05
  CGR           9          0          1   2.681E-05
  CGR          10          0          1   9.965E-06
  CGR          11          0          1   3.408E-06
  CGR          12          0          1   1.306E-06
  CGR          13          1          0   5.063E-07

    CGRSolver converged.

	-----------------------------------------------------------
	 ==================> DF-MP2 Energies <==================== 
	-----------------------------------------------------------
	 Reference Energy          =    -379.6983761020761676 [Eh]
	 Singles Energy            =      -0.0000000000000000 [Eh]
	 Same-Spin Energy          =      -0.3674102597193404 [Eh]
	 Opposite-Spin Energy      =      -1.1339077246829792 [Eh]
	 Correlation Energy        =      -1.5013179844023194 [Eh]
	 Total Energy              =    -381.1996940864784733 [Eh]
	-----------------------------------------------------------
	 ================> DF-SCS-MP2 Energies <================== 
	-----------------------------------------------------------
	 SCS Same-Spin Scale       =       0.3333333333333333 [-]
	 SCS Opposite-Spin Scale   =       1.2000000000000000 [-]
	 SCS Same-Spin Energy      =      -0.1224700865731135 [Eh]
	 SCS Opposite-Spin Energy  =      -1.3606892696195749 [Eh]
	 SCS Correlation Energy    =      -1.4831593561926883 [Eh]
	 SCS Total Energy          =    -381.1815354582688542 [Eh]
	-----------------------------------------------------------



Properties will be evaluated at   0.000000,  -0.000000,  -0.000000 [a0]

Properties computed using the MP2 density matrix

  Nuclear Dipole Moment: [e a0]
     X:     3.8443      Y:    -4.9998      Z:     0.7450

  Electronic Dipole Moment: [e a0]
     X:    -2.7693      Y:     4.0390      Z:    -0.3203

  Dipole Moment: [e a0]
     X:     1.0750      Y:    -0.9608      Z:     0.4248     Total:     1.5031

  Dipole Moment: [D]
     X:     2.7324      Y:    -2.4420      Z:     1.0797     Total:     3.8204


*** tstop() called on node142.bme.utexas.edu at Fri Feb 26 21:37:21 2021
Module time:
	user time   =     252.67 seconds =       4.21 minutes
	system time =       6.91 seconds =       0.12 minutes
	total time  =         39 seconds =       0.65 minutes
Total time:
	user time   =     331.09 seconds =       5.52 minutes
	system time =       9.69 seconds =       0.16 minutes
	total time  =         51 seconds =       0.85 minutes

    Psi4 stopped on: Friday, 26 February 2021 09:37PM
    Psi4 wall time for execution: 0:00:51.26

*** Psi4 exiting successfully. Buy a developer a beer!
