
    -----------------------------------------------------------------------
          Psi4: An Open-Source Ab Initio Electronic Structure Package
                               Psi4 1.4a3.dev225 

                         Git: Rev {master} 7105e37 


    D. G. A. Smith, L. A. Burns, A. C. Simmonett, R. M. Parrish,
    M. C. Schieber, R. Galvelis, P. Kraus, H. Kruse, R. Di Remigio,
    A. Alenaizan, A. M. James, S. Lehtola, J. P. Misiewicz, M. Scheurer,
    R. A. Shaw, J. B. Schriber, Y. Xie, Z. L. Glick, D. A. Sirianni,
    J. S. O'Brien, J. M. Waldrop, A. Kumar, E. G. Hohenstein,
    B. P. Pritchard, B. R. Brooks, H. F. Schaefer III, A. Yu. Sokolov,
    K. Patkowski, A. E. DePrince III, U. Bozkaya, R. A. King,
    F. A. Evangelista, J. M. Turney, T. D. Crawford, C. D. Sherrill,
    J. Chem. Phys. 152(18) 184108 (2020). https://doi.org/10.1063/5.0006002

                            Additional Code Authors
    E. T. Seidl, C. L. Janssen, E. F. Valeev, M. L. Leininger,
    J. F. Gonthier, R. M. Richard, H. R. McAlexander, M. Saitow, X. Wang,
    P. Verma, and M. H. Lechner

             Previous Authors, Complete List of Code Contributors,
                       and Citations for Specific Modules
    https://github.com/psi4/psi4/blob/master/codemeta.json
    https://github.com/psi4/psi4/graphs/contributors
    http://psicode.org/psi4manual/master/introduction.html#citing-psifour

    -----------------------------------------------------------------------


    Psi4 started on: Friday, 19 March 2021 10:47PM

    Process ID: 269316
    Host:       c446-103.stampede2.tacc.utexas.edu
    PSIDATADIR: /home1/07844/xy3866/miniconda3/envs/p4env/share/psi4
    Memory:     500.0 MiB
    Threads:    32
    
  ==> Input File <==

--------------------------------------------------------------------------
#psi4
#
memory 32 gb

molecule  {
0 1
  O        1.0008990     1.1197090    -0.0959030
  O       -1.6389080    -1.2036290    -0.1576800
  O       -1.2230690     1.6022640    -0.0675910
  C        0.8143200    -1.2427870    -0.1986520
  C       -0.4577570    -0.6687040     0.3963640
  C        1.7925350    -0.0950530     0.0479070
  C       -0.3271207     0.8230095     0.0604941
  H        0.6529500    -1.3959670    -1.2698370
  H        1.1362240    -2.1837260     0.2527190
  H       -0.4482060    -0.7692910     1.4955050
  H        2.2087130    -0.1135160     1.0603560
  H        2.6064290    -0.0309800    -0.6748690
  H       -2.2893650    -0.4737730    -0.1440310
units angstrom
no_reorient  #important for SAPT in psi4, default
symmetry c1  #important for SAPT in psi4, default
}

set PROPERTIES_ORIGIN ["COM"]
properties('MP2/aug-cc-pvtz', properties = ['dipole'])
--------------------------------------------------------------------------

  Memory set to  29.802 GiB by Python driver.
    SCF Algorithm Type (re)set to DF.

*** tstart() called on c446-103.stampede2.tacc.utexas.edu
*** at Fri Mar 19 22:47:40 2021

   => Loading Basis Set <=

    Name: AUG-CC-PVTZ
    Role: ORBITAL
    Keyword: BASIS
    atoms 1-3  entry O          line   331 file /home1/07844/xy3866/miniconda3/envs/p4env/share/psi4/basis/aug-cc-pvtz.gbs 
    atoms 4-7  entry C          line   239 file /home1/07844/xy3866/miniconda3/envs/p4env/share/psi4/basis/aug-cc-pvtz.gbs 
    atoms 8-13 entry H          line    40 file /home1/07844/xy3866/miniconda3/envs/p4env/share/psi4/basis/aug-cc-pvtz.gbs 


         ---------------------------------------------------------
                                   SCF
               by Justin Turney, Rob Parrish, Andy Simmonett
                          and Daniel G. A. Smith
                              RHF Reference
                       32 Threads,  30517 MiB Core
         ---------------------------------------------------------

  ==> Geometry <==

    Molecular point group: c1
    Full point group: C1

    Geometry (in Angstrom), charge = 0, multiplicity = 1:

       Center              X                  Y                   Z               Mass       
    ------------   -----------------  -----------------  -----------------  -----------------
         O            1.040171637226     1.069947533473    -0.088666839509    15.994914619570
         O           -1.599635362774    -1.253390466527    -0.150443839509    15.994914619570
         O           -1.183796362774     1.552502533473    -0.060354839509    15.994914619570
         C            0.853592637226    -1.292548466527    -0.191415839509    12.000000000000
         C           -0.418484362774    -0.718465466527     0.403600160491    12.000000000000
         C            1.831807637226    -0.144814466527     0.055143160491    12.000000000000
         C           -0.287848062774     0.773248033473     0.067730260491    12.000000000000
         H            0.692222637226    -1.445728466527    -1.262600839509     1.007825032230
         H            1.175496637226    -2.233487466527     0.259955160491     1.007825032230
         H           -0.408933362774    -0.819052466527     1.502741160491     1.007825032230
         H            2.247985637226    -0.163277466527     1.067592160491     1.007825032230
         H            2.645701637226    -0.080741466527    -0.667632839509     1.007825032230
         H           -2.250092362774    -0.523534466527    -0.136794839509     1.007825032230

  Running in c1 symmetry.

  Rotational constants: A =      0.12752  B =      0.10482  C =      0.06112 [cm^-1]
  Rotational constants: A =   3822.93360  B =   3142.32628  C =   1832.22200 [MHz]
  Nuclear repulsion =  317.393886411858546

  Charge       = 0
  Multiplicity = 1
  Electrons    = 54
  Nalpha       = 27
  Nbeta        = 27

  ==> Algorithm <==

  SCF Algorithm Type is DF.
  DIIS enabled.
  MOM disabled.
  Fractional occupation disabled.
  Guess Type is SAD.
  Energy threshold   = 1.00e-10
  Density threshold  = 1.00e-10
  Integral threshold = 1.00e-12

  ==> Primary Basis <==

  Basis Set: AUG-CC-PVTZ
    Blend: AUG-CC-PVTZ
    Number of shells: 152
    Number of basis functions: 460
    Number of Cartesian functions: 535
    Spherical Harmonics?: true
    Max angular momentum: 3

   => Loading Basis Set <=

    Name: (AUG-CC-PVTZ AUX)
    Role: JKFIT
    Keyword: DF_BASIS_SCF
    atoms 1-3  entry O          line   286 file /home1/07844/xy3866/miniconda3/envs/p4env/share/psi4/basis/aug-cc-pvtz-jkfit.gbs 
    atoms 4-7  entry C          line   162 file /home1/07844/xy3866/miniconda3/envs/p4env/share/psi4/basis/aug-cc-pvtz-jkfit.gbs 
    atoms 8-13 entry H          line    70 file /home1/07844/xy3866/miniconda3/envs/p4env/share/psi4/basis/aug-cc-pvtz-jkfit.gbs 

  ==> Integral Setup <==

  DFHelper Memory: AOs need 1.638 GiB; user supplied 22.352 GiB. Using in-core AOs.

  ==> MemDFJK: Density-Fitted J/K Matrices <==

    J tasked:                   Yes
    K tasked:                   Yes
    wK tasked:                   No
    OpenMP threads:              32
    Memory [MiB]:             22888
    Algorithm:                 Core
    Schwarz Cutoff:           1E-12
    Mask sparsity (%):       2.8790
    Fitting Condition:        1E-10

   => Auxiliary Basis Set <=

  Basis Set: (AUG-CC-PVTZ AUX)
    Blend: AUG-CC-PVTZ-JKFIT
    Number of shells: 294
    Number of basis functions: 1004
    Number of Cartesian functions: 1247
    Spherical Harmonics?: true
    Max angular momentum: 4

  Minimum eigenvalue in the overlap matrix is 5.9191333442E-06.
  Reciprocal condition number of the overlap matrix is 3.3425948289E-07.
    Using symmetric orthogonalization.

  ==> Pre-Iterations <==

  SCF Guess: Superposition of Atomic Densities via on-the-fly atomic UHF (no occupation information).

   -------------------------
    Irrep   Nso     Nmo    
   -------------------------
     A        460     460 
   -------------------------
    Total     460     460
   -------------------------

  ==> Iterations <==

                           Total Energy        Delta E     RMS |[F,P]|

   @DF-RHF iter SAD:  -379.03343825682481   -3.79033e+02   0.00000e+00 
   @DF-RHF iter   1:  -379.49434813523908   -4.60910e-01   1.44159e-03 DIIS
   @DF-RHF iter   2:  -379.64644384526929   -1.52096e-01   8.61035e-04 DIIS
   @DF-RHF iter   3:  -379.69813240564241   -5.16886e-02   1.55269e-04 DIIS
   @DF-RHF iter   4:  -379.70123226532223   -3.09986e-03   6.72626e-05 DIIS
   @DF-RHF iter   5:  -379.70176080764537   -5.28542e-04   1.46904e-05 DIIS
   @DF-RHF iter   6:  -379.70181293991504   -5.21323e-05   7.49204e-06 DIIS
   @DF-RHF iter   7:  -379.70182388207820   -1.09422e-05   2.89216e-06 DIIS
   @DF-RHF iter   8:  -379.70182670035092   -2.81827e-06   1.04655e-06 DIIS
   @DF-RHF iter   9:  -379.70182703877072   -3.38420e-07   3.01659e-07 DIIS
   @DF-RHF iter  10:  -379.70182705936980   -2.05991e-08   9.50120e-08 DIIS
   @DF-RHF iter  11:  -379.70182706111410   -1.74430e-09   3.41875e-08 DIIS
   @DF-RHF iter  12:  -379.70182706130191   -1.87811e-10   1.10082e-08 DIIS
   @DF-RHF iter  13:  -379.70182706133517   -3.32534e-11   3.58973e-09 DIIS
   @DF-RHF iter  14:  -379.70182706133937   -4.20641e-12   1.48822e-09 DIIS
   @DF-RHF iter  15:  -379.70182706134170   -2.33058e-12   5.84450e-10 DIIS
   @DF-RHF iter  16:  -379.70182706134108    6.25278e-13   2.08124e-10 DIIS
   @DF-RHF iter  17:  -379.70182706134091    1.70530e-13   8.58806e-11 DIIS
  Energy and wave function converged.


  ==> Post-Iterations <==

    Orbital Energies [Eh]
    ---------------------

    Doubly Occupied:                                                      

       1A    -20.615924     2A    -20.580451     3A    -20.563788  
       4A    -11.391302     5A    -11.317774     6A    -11.315338  
       7A    -11.257510     8A     -1.468806     9A     -1.389820  
      10A     -1.378148    11A     -1.090380    12A     -0.984787  
      13A     -0.859434    14A     -0.795304    15A     -0.732535  
      16A     -0.714686    17A     -0.688364    18A     -0.657731  
      19A     -0.625640    20A     -0.605785    21A     -0.580599  
      22A     -0.561218    23A     -0.535936    24A     -0.524614  
      25A     -0.474677    26A     -0.470513    27A     -0.444908  

    Virtual:                                                              

      28A      0.023130    29A      0.033118    30A      0.038113  
      31A      0.043304    32A      0.057042    33A      0.058279  
      34A      0.076487    35A      0.087289    36A      0.092052  
      37A      0.111943    38A      0.114670    39A      0.117754  
      40A      0.120188    41A      0.123012    42A      0.124038  
      43A      0.132940    44A      0.135654    45A      0.143842  
      46A      0.152738    47A      0.160310    48A      0.172365  
      49A      0.180433    50A      0.184909    51A      0.205537  
      52A      0.216811    53A      0.225163    54A      0.235757  
      55A      0.243596    56A      0.245646    57A      0.252469  
      58A      0.260957    59A      0.262401    60A      0.269376  
      61A      0.272433    62A      0.284422    63A      0.294512  
      64A      0.301770    65A      0.302028    66A      0.321121  
      67A      0.324104    68A      0.330650    69A      0.335360  
      70A      0.339491    71A      0.345799    72A      0.347418  
      73A      0.354375    74A      0.369013    75A      0.378857  
      76A      0.388975    77A      0.394855    78A      0.398425  
      79A      0.402600    80A      0.408158    81A      0.419566  
      82A      0.427218    83A      0.441791    84A      0.445506  
      85A      0.450178    86A      0.454157    87A      0.470382  
      88A      0.478916    89A      0.479288    90A      0.483328  
      91A      0.488364    92A      0.490803    93A      0.505356  
      94A      0.514614    95A      0.524236    96A      0.529489  
      97A      0.543987    98A      0.551233    99A      0.563309  
     100A      0.566704   101A      0.574081   102A      0.581327  
     103A      0.596365   104A      0.601020   105A      0.607170  
     106A      0.610645   107A      0.620770   108A      0.632371  
     109A      0.638936   110A      0.643640   111A      0.663423  
     112A      0.680716   113A      0.697157   114A      0.726944  
     115A      0.733494   116A      0.738681   117A      0.749191  
     118A      0.758387   119A      0.777054   120A      0.784141  
     121A      0.806006   122A      0.807316   123A      0.818553  
     124A      0.823881   125A      0.826741   126A      0.841251  
     127A      0.858496   128A      0.867153   129A      0.876317  
     130A      0.879357   131A      0.882220   132A      0.892595  
     133A      0.897775   134A      0.917193   135A      0.924010  
     136A      0.929416   137A      0.942806   138A      0.950561  
     139A      0.961397   140A      0.965696   141A      0.983547  
     142A      0.997457   143A      1.004879   144A      1.018074  
     145A      1.021915   146A      1.031215   147A      1.039173  
     148A      1.053643   149A      1.067893   150A      1.074879  
     151A      1.075030   152A      1.082454   153A      1.087958  
     154A      1.099853   155A      1.106058   156A      1.116492  
     157A      1.120469   158A      1.134606   159A      1.146059  
     160A      1.154835   161A      1.168233   162A      1.171753  
     163A      1.182143   164A      1.187151   165A      1.205711  
     166A      1.215958   167A      1.226571   168A      1.234921  
     169A      1.250407   170A      1.252822   171A      1.266773  
     172A      1.276668   173A      1.288085   174A      1.316563  
     175A      1.327160   176A      1.347560   177A      1.359327  
     178A      1.366138   179A      1.382925   180A      1.389374  
     181A      1.404725   182A      1.427232   183A      1.437347  
     184A      1.448850   185A      1.457411   186A      1.461409  
     187A      1.472966   188A      1.475580   189A      1.498802  
     190A      1.506015   191A      1.513725   192A      1.532418  
     193A      1.548321   194A      1.552963   195A      1.560053  
     196A      1.579882   197A      1.605455   198A      1.615713  
     199A      1.624044   200A      1.638875   201A      1.648056  
     202A      1.667250   203A      1.673484   204A      1.684236  
     205A      1.696634   206A      1.702095   207A      1.709907  
     208A      1.719647   209A      1.724945   210A      1.737862  
     211A      1.761776   212A      1.778223   213A      1.791092  
     214A      1.795472   215A      1.818157   216A      1.825429  
     217A      1.846458   218A      1.848465   219A      1.874158  
     220A      1.875341   221A      1.886389   222A      1.899526  
     223A      1.924212   224A      1.942016   225A      1.947498  
     226A      1.973732   227A      1.986142   228A      1.997402  
     229A      2.007987   230A      2.032972   231A      2.045203  
     232A      2.065035   233A      2.083408   234A      2.091597  
     235A      2.107082   236A      2.126179   237A      2.146085  
     238A      2.158117   239A      2.173235   240A      2.189952  
     241A      2.216182   242A      2.237997   243A      2.252143  
     244A      2.279843   245A      2.288803   246A      2.331046  
     247A      2.339107   248A      2.375823   249A      2.393945  
     250A      2.416039   251A      2.449294   252A      2.469338  
     253A      2.492090   254A      2.496724   255A      2.507160  
     256A      2.533859   257A      2.557708   258A      2.576259  
     259A      2.600445   260A      2.604281   261A      2.626959  
     262A      2.665597   263A      2.673274   264A      2.692701  
     265A      2.705969   266A      2.735177   267A      2.742407  
     268A      2.777673   269A      2.781762   270A      2.800734  
     271A      2.819807   272A      2.849288   273A      2.887722  
     274A      2.892604   275A      2.907890   276A      2.933342  
     277A      2.951615   278A      2.970925   279A      2.987511  
     280A      3.005489   281A      3.028998   282A      3.037589  
     283A      3.073595   284A      3.103085   285A      3.111626  
     286A      3.120139   287A      3.172249   288A      3.175254  
     289A      3.198316   290A      3.218821   291A      3.259445  
     292A      3.292792   293A      3.323550   294A      3.338418  
     295A      3.369084   296A      3.430680   297A      3.447973  
     298A      3.462288   299A      3.493758   300A      3.505635  
     301A      3.551812   302A      3.552146   303A      3.596176  
     304A      3.612008   305A      3.637391   306A      3.657041  
     307A      3.682282   308A      3.696967   309A      3.720358  
     310A      3.727579   311A      3.748313   312A      3.759271  
     313A      3.766561   314A      3.792295   315A      3.812624  
     316A      3.836859   317A      3.863799   318A      3.890406  
     319A      3.912292   320A      3.926195   321A      3.945031  
     322A      3.950852   323A      3.961638   324A      4.007105  
     325A      4.016319   326A      4.018624   327A      4.032617  
     328A      4.049763   329A      4.079571   330A      4.086398  
     331A      4.099490   332A      4.146598   333A      4.166311  
     334A      4.189196   335A      4.194714   336A      4.215020  
     337A      4.220874   338A      4.240053   339A      4.270155  
     340A      4.298591   341A      4.312068   342A      4.324504  
     343A      4.353756   344A      4.361288   345A      4.370481  
     346A      4.412070   347A      4.436465   348A      4.456397  
     349A      4.464912   350A      4.476084   351A      4.504558  
     352A      4.518721   353A      4.558394   354A      4.577546  
     355A      4.587606   356A      4.621792   357A      4.652972  
     358A      4.682735   359A      4.719285   360A      4.730989  
     361A      4.741097   362A      4.766969   363A      4.809242  
     364A      4.836290   365A      4.856103   366A      4.865183  
     367A      4.889136   368A      4.907719   369A      4.936800  
     370A      4.962601   371A      4.976645   372A      5.009448  
     373A      5.018165   374A      5.041354   375A      5.067363  
     376A      5.080331   377A      5.092039   378A      5.108513  
     379A      5.154085   380A      5.186596   381A      5.212647  
     382A      5.256864   383A      5.286581   384A      5.321444  
     385A      5.331054   386A      5.361146   387A      5.394986  
     388A      5.411560   389A      5.444887   390A      5.470374  
     391A      5.483182   392A      5.513599   393A      5.543212  
     394A      5.560174   395A      5.579077   396A      5.623069  
     397A      5.666479   398A      5.681401   399A      5.767938  
     400A      5.807608   401A      5.847490   402A      5.892095  
     403A      5.915265   404A      5.986110   405A      5.994379  
     406A      6.052913   407A      6.153115   408A      6.189544  
     409A      6.275465   410A      6.325691   411A      6.390566  
     412A      6.520960   413A      6.560138   414A      6.639508  
     415A      6.679672   416A      6.699823   417A      6.764733  
     418A      6.772203   419A      6.857200   420A      6.912945  
     421A      6.950124   422A      6.959575   423A      6.984450  
     424A      7.023410   425A      7.029179   426A      7.076284  
     427A      7.145241   428A      7.167259   429A      7.247973  
     430A      7.267373   431A      7.287960   432A      7.329613  
     433A      7.352319   434A      7.392175   435A      7.415267  
     436A      7.484982   437A      7.496049   438A      7.523564  
     439A      7.589863   440A      7.645102   441A      7.690102  
     442A      7.728090   443A      7.778764   444A      7.781706  
     445A      7.865028   446A      7.899905   447A      7.930345  
     448A      7.965672   449A      8.027384   450A      8.191901  
     451A      8.283468   452A      8.477821   453A      8.584094  
     454A     14.935545   455A     15.993872   456A     16.170513  
     457A     17.377581   458A     18.482056   459A     18.886031  
     460A     19.734563  

    Final Occupation by Irrep:
              A 
    DOCC [    27 ]

  @DF-RHF Final Energy:  -379.70182706134091

   => Energetics <=

    Nuclear Repulsion Energy =            317.3938864118585457
    One-Electron Energy =               -1148.9394813817095837
    Two-Electron Energy =                 451.8437679085100740
    Total Energy =                       -379.7018270613409072

Computation Completed

*** tstop() called on c446-103.stampede2.tacc.utexas.edu at Fri Mar 19 22:47:58 2021
Module time:
	user time   =     275.01 seconds =       4.58 minutes
	system time =      19.99 seconds =       0.33 minutes
	total time  =         18 seconds =       0.30 minutes
Total time:
	user time   =     275.01 seconds =       4.58 minutes
	system time =      19.99 seconds =       0.33 minutes
	total time  =         18 seconds =       0.30 minutes
   => Loading Basis Set <=

    Name: (AUG-CC-PVTZ AUX)
    Role: RIFIT
    Keyword: DF_BASIS_MP2
    atoms 1-3  entry O          line   264 file /home1/07844/xy3866/miniconda3/envs/p4env/share/psi4/basis/aug-cc-pvtz-ri.gbs 
    atoms 4-7  entry C          line   148 file /home1/07844/xy3866/miniconda3/envs/p4env/share/psi4/basis/aug-cc-pvtz-ri.gbs 
    atoms 8-13 entry H          line    30 file /home1/07844/xy3866/miniconda3/envs/p4env/share/psi4/basis/aug-cc-pvtz-ri.gbs 


*** tstart() called on c446-103.stampede2.tacc.utexas.edu
*** at Fri Mar 19 22:47:58 2021


  //>>>>>>>>>>>>>>>>>>>>>>>>>>>>>>>>>>>//
  //               DFMP2               //
  //<<<<<<<<<<<<<<<<<<<<<<<<<<<<<<<<<<<//

	 --------------------------------------------------------
	                          DF-MP2                         
	      2nd-Order Density-Fitted Moller-Plesset Theory     
	              RMP2 Wavefunction,  32 Threads             
	                                                         
	        Rob Parrish, Justin Turney, Andy Simmonett,      
	           Ed Hohenstein, and C. David Sherrill          
	 --------------------------------------------------------

   => Auxiliary Basis Set <=

  Basis Set: (AUG-CC-PVTZ AUX)
    Blend: AUG-CC-PVTZ-RI
    Number of shells: 280
    Number of basis functions: 1018
    Number of Cartesian functions: 1282
    Spherical Harmonics?: true
    Max angular momentum: 4

	 --------------------------------------------------------
	                 NBF =   460, NAUX =  1018
	 --------------------------------------------------------
	   CLASS    FOCC     OCC    AOCC    AVIR     VIR    FVIR
	   PAIRS       0      27      27     433     433       0
	 --------------------------------------------------------

  DFHelper Memory: AOs need 1.657 GiB; user supplied 22.352 GiB. Using in-core AOs.


         ------------------------------------------------------------
                                     CPHF                           
                                  Rob Parrish                       
         ------------------------------------------------------------

  ==> Geometry <==

    Molecular point group: c1
    Full point group: C1

    Geometry (in Angstrom), charge = 0, multiplicity = 1:

       Center              X                  Y                   Z               Mass       
    ------------   -----------------  -----------------  -----------------  -----------------
         O            1.040171637226     1.069947533473    -0.088666839509    15.994914619570
         O           -1.599635362774    -1.253390466527    -0.150443839509    15.994914619570
         O           -1.183796362774     1.552502533473    -0.060354839509    15.994914619570
         C            0.853592637226    -1.292548466527    -0.191415839509    12.000000000000
         C           -0.418484362774    -0.718465466527     0.403600160491    12.000000000000
         C            1.831807637226    -0.144814466527     0.055143160491    12.000000000000
         C           -0.287848062774     0.773248033473     0.067730260491    12.000000000000
         H            0.692222637226    -1.445728466527    -1.262600839509     1.007825032230
         H            1.175496637226    -2.233487466527     0.259955160491     1.007825032230
         H           -0.408933362774    -0.819052466527     1.502741160491     1.007825032230
         H            2.247985637226    -0.163277466527     1.067592160491     1.007825032230
         H            2.645701637226    -0.080741466527    -0.667632839509     1.007825032230
         H           -2.250092362774    -0.523534466527    -0.136794839509     1.007825032230

  Nuclear repulsion =  317.393886411858546
  Reference energy  = -379.701827061340907

  ==> Basis Set <==

  Basis Set: AUG-CC-PVTZ
    Blend: AUG-CC-PVTZ
    Number of shells: 152
    Number of basis functions: 460
    Number of Cartesian functions: 535
    Spherical Harmonics?: true
    Max angular momentum: 3

  ==> CGRSolver (by Rob Parrish) <==

   Number of roots    =         1
   Preconditioning    =    JACOBI
   Convergence cutoff =     1E-06
   Maximum iterations =       100

  ==> CPHFRHamiltonian (by Rob Parrish) <== 

  ==> MemDFJK: Density-Fitted J/K Matrices <==

    J tasked:                   Yes
    K tasked:                   Yes
    wK tasked:                   No
    OpenMP threads:              32
    Memory [MiB]:             22888
    Algorithm:                 Core
    Schwarz Cutoff:           1E-12
    Mask sparsity (%):       1.6399
    Fitting Condition:        1E-10

   => Auxiliary Basis Set <=

  Basis Set: (AUG-CC-PVTZ AUX)
    Blend: AUG-CC-PVTZ-JKFIT
    Number of shells: 294
    Number of basis functions: 1004
    Number of Cartesian functions: 1247
    Spherical Harmonics?: true
    Max angular momentum: 4

  ==> CPHF Iterations <==

  => Iterations <=

             Iter  Converged  Remaining    Residual
  CGR           1          0          1   1.088E-01
  CGR           2          0          1   2.939E-02
  CGR           3          0          1   1.264E-02
  CGR           4          0          1   4.040E-03
  CGR           5          0          1   1.675E-03
  CGR           6          0          1   5.660E-04
  CGR           7          0          1   1.665E-04
  CGR           8          0          1   6.565E-05
  CGR           9          0          1   2.210E-05
  CGR          10          0          1   8.171E-06
  CGR          11          0          1   3.114E-06
  CGR          12          0          1   1.383E-06
  CGR          13          1          0   5.353E-07

    CGRSolver converged.

	-----------------------------------------------------------
	 ==================> DF-MP2 Energies <==================== 
	-----------------------------------------------------------
	 Reference Energy          =    -379.7018270613409072 [Eh]
	 Singles Energy            =      -0.0000000000000000 [Eh]
	 Same-Spin Energy          =      -0.3679774476927967 [Eh]
	 Opposite-Spin Energy      =      -1.1355881970126016 [Eh]
	 Correlation Energy        =      -1.5035656447053984 [Eh]
	 Total Energy              =    -381.2053927060463252 [Eh]
	-----------------------------------------------------------
	 ================> DF-SCS-MP2 Energies <================== 
	-----------------------------------------------------------
	 SCS Same-Spin Scale       =       0.3333333333333333 [-]
	 SCS Opposite-Spin Scale   =       1.2000000000000000 [-]
	 SCS Same-Spin Energy      =      -0.1226591492309322 [Eh]
	 SCS Opposite-Spin Energy  =      -1.3627058364151219 [Eh]
	 SCS Correlation Energy    =      -1.4853649856460540 [Eh]
	 SCS Total Energy          =    -381.1871920469869792 [Eh]
	-----------------------------------------------------------



Properties will be evaluated at   0.000000,   0.000000,   0.000000 [a0]

Properties computed using the MP2 density matrix

  Nuclear Dipole Moment: [e a0]
     X:     3.8375      Y:    -4.9300      Z:     0.7141

  Electronic Dipole Moment: [e a0]
     X:    -2.8338      Y:     4.0647      Z:    -0.3314

  Dipole Moment: [e a0]
     X:     1.0036      Y:    -0.8653      Z:     0.3826     Total:     1.3793

  Dipole Moment: [D]
     X:     2.5510      Y:    -2.1993      Z:     0.9726     Total:     3.5058


*** tstop() called on c446-103.stampede2.tacc.utexas.edu at Fri Mar 19 22:49:29 2021
Module time:
	user time   =     667.56 seconds =      11.13 minutes
	system time =      20.42 seconds =       0.34 minutes
	total time  =         91 seconds =       1.52 minutes
Total time:
	user time   =     943.22 seconds =      15.72 minutes
	system time =      40.42 seconds =       0.67 minutes
	total time  =        109 seconds =       1.82 minutes

    Psi4 stopped on: Friday, 19 March 2021 10:49PM
    Psi4 wall time for execution: 0:01:49.56

*** Psi4 exiting successfully. Buy a developer a beer!
