7768                                                                    
Freq      RMP2-FC                                                     6-31G(d)            
Number of atoms                            I               19
Info1-9                                    I   N=           9
          31          29        1002           0           0         100
           6           2           1
Charge                                     I                0
Multiplicity                               I                1
Number of electrons                        I               62
Number of alpha electrons                  I               31
Number of beta electrons                   I               31
Number of basis functions                  I              142
Number of independent functions            I              142
Number of point charges in /Mol/           I                0
Number of translation vectors              I                0
Atomic numbers                             I   N=          19
           8           7           6           6           6           6
           6           6           1           1           1           1
           1           1           1           1           1           1
           1
Nuclear charges                            R   N=          19
  8.00000000E+00  7.00000000E+00  6.00000000E+00  6.00000000E+00  6.00000000E+00
  6.00000000E+00  6.00000000E+00  6.00000000E+00  1.00000000E+00  1.00000000E+00
  1.00000000E+00  1.00000000E+00  1.00000000E+00  1.00000000E+00  1.00000000E+00
  1.00000000E+00  1.00000000E+00  1.00000000E+00  1.00000000E+00
Current cartesian coordinates              R   N=          57
 -4.80299739E+00  1.24678217E-01 -7.42107758E-01 -1.34600337E+00 -2.31339340E+00
 -4.71987413E-02  3.47337178E+00  1.38222032E+00 -6.48824454E-02  3.24787938E+00
 -1.42126532E+00 -7.19250437E-01  1.08649727E+00  2.95414066E+00 -4.90994518E-01
  1.22200606E+00 -2.82046312E+00  7.91282203E-01 -1.18252745E+00  2.16278693E+00
  1.13852457E+00 -2.62075183E+00 -6.60645182E-02  5.81144008E-02  5.02034262E+00
  2.20192148E+00 -1.17487823E+00  4.03356255E+00  1.55656994E+00  1.92744526E+00
  2.83937858E+00 -1.65953417E+00 -2.73704296E+00  5.07644094E+00 -2.33258427E+00
 -3.58783670E-01  5.41102098E-01  2.89142565E+00 -2.49093231E+00  1.53223949E+00
  4.93307739E+00 -7.01698434E-02  1.49733712E+00 -4.86006059E+00  5.98039006E-01
  1.42206715E+00 -2.38828098E+00  2.81232293E+00 -2.56273215E+00  3.69383830E+00
  1.24954626E+00 -5.52097492E-01  1.74556300E+00  3.07175624E+00 -2.36048946E+00
 -3.73373736E+00 -8.36812091E-01
Force Field                                I                0
Int Atom Types                             I   N=          19
           0           0           0           0           0           0
           0           0           0           0           0           0
           0           0           0           0           0           0
           0
MM charges                                 R   N=          19
  0.00000000E+00  0.00000000E+00  0.00000000E+00  0.00000000E+00  0.00000000E+00
  0.00000000E+00  0.00000000E+00  0.00000000E+00  0.00000000E+00  0.00000000E+00
  0.00000000E+00  0.00000000E+00  0.00000000E+00  0.00000000E+00  0.00000000E+00
  0.00000000E+00  0.00000000E+00  0.00000000E+00  0.00000000E+00
Integer atomic weights                     I   N=          19
          16          14          12          12          12          12
          12          12           1           1           1           1
           1           1           1           1           1           1
           1
Real atomic weights                        R   N=          19
  1.59949146E+01  1.40030740E+01  1.20000000E+01  1.20000000E+01  1.20000000E+01
  1.20000000E+01  1.20000000E+01  1.20000000E+01  1.00782504E+00  1.00782504E+00
  1.00782504E+00  1.00782504E+00  1.00782504E+00  1.00782504E+00  1.00782504E+00
  1.00782504E+00  1.00782504E+00  1.00782504E+00  1.00782504E+00
Atom fragment info                         I   N=          19
           0           0           0           0           0           0
           0           0           0           0           0           0
           0           0           0           0           0           0
           0
Atom residue num                           I   N=          19
           0           0           0           0           0           0
           0           0           0           0           0           0
           0           0           0           0           0           0
           0
Nuclear spins                              I   N=          19
           0           2           0           0           0           0
           0           0           1           1           1           1
           1           1           1           1           1           1
           1
Nuclear ZEff                               R   N=          19
 -5.60000000E+00 -4.55000000E+00 -3.60000000E+00 -3.60000000E+00 -3.60000000E+00
 -3.60000000E+00 -3.60000000E+00 -3.60000000E+00 -1.00000000E+00 -1.00000000E+00
 -1.00000000E+00 -1.00000000E+00 -1.00000000E+00 -1.00000000E+00 -1.00000000E+00
 -1.00000000E+00 -1.00000000E+00 -1.00000000E+00 -1.00000000E+00
Nuclear QMom                               R   N=          19
  0.00000000E+00  2.04400000E+00  0.00000000E+00  0.00000000E+00  0.00000000E+00
  0.00000000E+00  0.00000000E+00  0.00000000E+00  0.00000000E+00  0.00000000E+00
  0.00000000E+00  0.00000000E+00  0.00000000E+00  0.00000000E+00  0.00000000E+00
  0.00000000E+00  0.00000000E+00  0.00000000E+00  0.00000000E+00
Nuclear GFac                               R   N=          19
  0.00000000E+00  4.03761000E-01  0.00000000E+00  0.00000000E+00  0.00000000E+00
  0.00000000E+00  0.00000000E+00  0.00000000E+00  2.79284600E+00  2.79284600E+00
  2.79284600E+00  2.79284600E+00  2.79284600E+00  2.79284600E+00  2.79284600E+00
  2.79284600E+00  2.79284600E+00  2.79284600E+00  2.79284600E+00
MicOpt                                     I   N=          19
          -1          -1          -1          -1          -1          -1
          -1          -1          -1          -1          -1          -1
          -1          -1          -1          -1          -1          -1
          -1
Number of contracted shells                I               54
Number of primitive shells                 I              132
Pure/Cartesian d shells                    I                1
Pure/Cartesian f shells                    I                0
Highest angular momentum                   I                2
Largest degree of contraction              I                6
Shell types                                I   N=          54
           0          -1          -1           2           0          -1
          -1           2           0          -1          -1           2
           0          -1          -1           2           0          -1
          -1           2           0          -1          -1           2
           0          -1          -1           2           0          -1
          -1           2           0           0           0           0
           0           0           0           0           0           0
           0           0           0           0           0           0
           0           0           0           0           0           0
Number of primitives per shell             I   N=          54
           6           3           1           1           6           3
           1           1           6           3           1           1
           6           3           1           1           6           3
           1           1           6           3           1           1
           6           3           1           1           6           3
           1           1           3           1           3           1
           3           1           3           1           3           1
           3           1           3           1           3           1
           3           1           3           1           3           1
Shell to atom map                          I   N=          54
           1           1           1           1           2           2
           2           2           3           3           3           3
           4           4           4           4           5           5
           5           5           6           6           6           6
           7           7           7           7           8           8
           8           8           9           9          10          10
          11          11          12          12          13          13
          14          14          15          15          16          16
          17          17          18          18          19          19
Primitive exponents                        R   N=         132
  5.48467166E+03  8.25234946E+02  1.88046958E+02  5.29645000E+01  1.68975704E+01
  5.79963534E+00  1.55396162E+01  3.59993359E+00  1.01376175E+00  2.70005823E-01
  8.00000000E-01  4.17351146E+03  6.27457911E+02  1.42902093E+02  4.02343293E+01
  1.28202129E+01  4.39043701E+00  1.16263619E+01  2.71627981E+00  7.72218397E-01
  2.12031498E-01  8.00000000E-01  3.04752488E+03  4.57369518E+02  1.03948685E+02
  2.92101553E+01  9.28666296E+00  3.16392696E+00  7.86827235E+00  1.88128854E+00
  5.44249258E-01  1.68714478E-01  8.00000000E-01  3.04752488E+03  4.57369518E+02
  1.03948685E+02  2.92101553E+01  9.28666296E+00  3.16392696E+00  7.86827235E+00
  1.88128854E+00  5.44249258E-01  1.68714478E-01  8.00000000E-01  3.04752488E+03
  4.57369518E+02  1.03948685E+02  2.92101553E+01  9.28666296E+00  3.16392696E+00
  7.86827235E+00  1.88128854E+00  5.44249258E-01  1.68714478E-01  8.00000000E-01
  3.04752488E+03  4.57369518E+02  1.03948685E+02  2.92101553E+01  9.28666296E+00
  3.16392696E+00  7.86827235E+00  1.88128854E+00  5.44249258E-01  1.68714478E-01
  8.00000000E-01  3.04752488E+03  4.57369518E+02  1.03948685E+02  2.92101553E+01
  9.28666296E+00  3.16392696E+00  7.86827235E+00  1.88128854E+00  5.44249258E-01
  1.68714478E-01  8.00000000E-01  3.04752488E+03  4.57369518E+02  1.03948685E+02
  2.92101553E+01  9.28666296E+00  3.16392696E+00  7.86827235E+00  1.88128854E+00
  5.44249258E-01  1.68714478E-01  8.00000000E-01  1.87311370E+01  2.82539436E+00
  6.40121692E-01  1.61277759E-01  1.87311370E+01  2.82539436E+00  6.40121692E-01
  1.61277759E-01  1.87311370E+01  2.82539436E+00  6.40121692E-01  1.61277759E-01
  1.87311370E+01  2.82539436E+00  6.40121692E-01  1.61277759E-01  1.87311370E+01
  2.82539436E+00  6.40121692E-01  1.61277759E-01  1.87311370E+01  2.82539436E+00
  6.40121692E-01  1.61277759E-01  1.87311370E+01  2.82539436E+00  6.40121692E-01
  1.61277759E-01  1.87311370E+01  2.82539436E+00  6.40121692E-01  1.61277759E-01
  1.87311370E+01  2.82539436E+00  6.40121692E-01  1.61277759E-01  1.87311370E+01
  2.82539436E+00  6.40121692E-01  1.61277759E-01  1.87311370E+01  2.82539436E+00
  6.40121692E-01  1.61277759E-01
Contraction coefficients                   R   N=         132
  1.83107443E-03  1.39501722E-02  6.84450781E-02  2.32714336E-01  4.70192898E-01
  3.58520853E-01 -1.10777550E-01 -1.48026263E-01  1.13076702E+00  1.00000000E+00
  1.00000000E+00  1.83477216E-03  1.39946270E-02  6.85865518E-02  2.32240873E-01
  4.69069948E-01  3.60455199E-01 -1.14961182E-01 -1.69117479E-01  1.14585195E+00
  1.00000000E+00  1.00000000E+00  1.83473713E-03  1.40373228E-02  6.88426223E-02
  2.32184443E-01  4.67941348E-01  3.62311985E-01 -1.19332420E-01 -1.60854152E-01
  1.14345644E+00  1.00000000E+00  1.00000000E+00  1.83473713E-03  1.40373228E-02
  6.88426223E-02  2.32184443E-01  4.67941348E-01  3.62311985E-01 -1.19332420E-01
 -1.60854152E-01  1.14345644E+00  1.00000000E+00  1.00000000E+00  1.83473713E-03
  1.40373228E-02  6.88426223E-02  2.32184443E-01  4.67941348E-01  3.62311985E-01
 -1.19332420E-01 -1.60854152E-01  1.14345644E+00  1.00000000E+00  1.00000000E+00
  1.83473713E-03  1.40373228E-02  6.88426223E-02  2.32184443E-01  4.67941348E-01
  3.62311985E-01 -1.19332420E-01 -1.60854152E-01  1.14345644E+00  1.00000000E+00
  1.00000000E+00  1.83473713E-03  1.40373228E-02  6.88426223E-02  2.32184443E-01
  4.67941348E-01  3.62311985E-01 -1.19332420E-01 -1.60854152E-01  1.14345644E+00
  1.00000000E+00  1.00000000E+00  1.83473713E-03  1.40373228E-02  6.88426223E-02
  2.32184443E-01  4.67941348E-01  3.62311985E-01 -1.19332420E-01 -1.60854152E-01
  1.14345644E+00  1.00000000E+00  1.00000000E+00  3.34946043E-02  2.34726953E-01
  8.13757326E-01  1.00000000E+00  3.34946043E-02  2.34726953E-01  8.13757326E-01
  1.00000000E+00  3.34946043E-02  2.34726953E-01  8.13757326E-01  1.00000000E+00
  3.34946043E-02  2.34726953E-01  8.13757326E-01  1.00000000E+00  3.34946043E-02
  2.34726953E-01  8.13757326E-01  1.00000000E+00  3.34946043E-02  2.34726953E-01
  8.13757326E-01  1.00000000E+00  3.34946043E-02  2.34726953E-01  8.13757326E-01
  1.00000000E+00  3.34946043E-02  2.34726953E-01  8.13757326E-01  1.00000000E+00
  3.34946043E-02  2.34726953E-01  8.13757326E-01  1.00000000E+00  3.34946043E-02
  2.34726953E-01  8.13757326E-01  1.00000000E+00  3.34946043E-02  2.34726953E-01
  8.13757326E-01  1.00000000E+00
P(S=P) Contraction coefficients            R   N=         132
  0.00000000E+00  0.00000000E+00  0.00000000E+00  0.00000000E+00  0.00000000E+00
  0.00000000E+00  7.08742682E-02  3.39752839E-01  7.27158577E-01  1.00000000E+00
  0.00000000E+00  0.00000000E+00  0.00000000E+00  0.00000000E+00  0.00000000E+00
  0.00000000E+00  0.00000000E+00  6.75797439E-02  3.23907296E-01  7.40895140E-01
  1.00000000E+00  0.00000000E+00  0.00000000E+00  0.00000000E+00  0.00000000E+00
  0.00000000E+00  0.00000000E+00  0.00000000E+00  6.89990666E-02  3.16423961E-01
  7.44308291E-01  1.00000000E+00  0.00000000E+00  0.00000000E+00  0.00000000E+00
  0.00000000E+00  0.00000000E+00  0.00000000E+00  0.00000000E+00  6.89990666E-02
  3.16423961E-01  7.44308291E-01  1.00000000E+00  0.00000000E+00  0.00000000E+00
  0.00000000E+00  0.00000000E+00  0.00000000E+00  0.00000000E+00  0.00000000E+00
  6.89990666E-02  3.16423961E-01  7.44308291E-01  1.00000000E+00  0.00000000E+00
  0.00000000E+00  0.00000000E+00  0.00000000E+00  0.00000000E+00  0.00000000E+00
  0.00000000E+00  6.89990666E-02  3.16423961E-01  7.44308291E-01  1.00000000E+00
  0.00000000E+00  0.00000000E+00  0.00000000E+00  0.00000000E+00  0.00000000E+00
  0.00000000E+00  0.00000000E+00  6.89990666E-02  3.16423961E-01  7.44308291E-01
  1.00000000E+00  0.00000000E+00  0.00000000E+00  0.00000000E+00  0.00000000E+00
  0.00000000E+00  0.00000000E+00  0.00000000E+00  6.89990666E-02  3.16423961E-01
  7.44308291E-01  1.00000000E+00  0.00000000E+00  0.00000000E+00  0.00000000E+00
  0.00000000E+00  0.00000000E+00  0.00000000E+00  0.00000000E+00  0.00000000E+00
  0.00000000E+00  0.00000000E+00  0.00000000E+00  0.00000000E+00  0.00000000E+00
  0.00000000E+00  0.00000000E+00  0.00000000E+00  0.00000000E+00  0.00000000E+00
  0.00000000E+00  0.00000000E+00  0.00000000E+00  0.00000000E+00  0.00000000E+00
  0.00000000E+00  0.00000000E+00  0.00000000E+00  0.00000000E+00  0.00000000E+00
  0.00000000E+00  0.00000000E+00  0.00000000E+00  0.00000000E+00  0.00000000E+00
  0.00000000E+00  0.00000000E+00  0.00000000E+00  0.00000000E+00  0.00000000E+00
  0.00000000E+00  0.00000000E+00  0.00000000E+00  0.00000000E+00  0.00000000E+00
  0.00000000E+00  0.00000000E+00
Coordinates of each shell                  R   N=         162
 -4.80299739E+00  1.24678217E-01 -7.42107758E-01 -4.80299739E+00  1.24678217E-01
 -7.42107758E-01 -4.80299739E+00  1.24678217E-01 -7.42107758E-01 -4.80299739E+00
  1.24678217E-01 -7.42107758E-01 -1.34600337E+00 -2.31339340E+00 -4.71987413E-02
 -1.34600337E+00 -2.31339340E+00 -4.71987413E-02 -1.34600337E+00 -2.31339340E+00
 -4.71987413E-02 -1.34600337E+00 -2.31339340E+00 -4.71987413E-02  3.47337178E+00
  1.38222032E+00 -6.48824454E-02  3.47337178E+00  1.38222032E+00 -6.48824454E-02
  3.47337178E+00  1.38222032E+00 -6.48824454E-02  3.47337178E+00  1.38222032E+00
 -6.48824454E-02  3.24787938E+00 -1.42126532E+00 -7.19250437E-01  3.24787938E+00
 -1.42126532E+00 -7.19250437E-01  3.24787938E+00 -1.42126532E+00 -7.19250437E-01
  3.24787938E+00 -1.42126532E+00 -7.19250437E-01  1.08649727E+00  2.95414066E+00
 -4.90994518E-01  1.08649727E+00  2.95414066E+00 -4.90994518E-01  1.08649727E+00
  2.95414066E+00 -4.90994518E-01  1.08649727E+00  2.95414066E+00 -4.90994518E-01
  1.22200606E+00 -2.82046312E+00  7.91282203E-01  1.22200606E+00 -2.82046312E+00
  7.91282203E-01  1.22200606E+00 -2.82046312E+00  7.91282203E-01  1.22200606E+00
 -2.82046312E+00  7.91282203E-01 -1.18252745E+00  2.16278693E+00  1.13852457E+00
 -1.18252745E+00  2.16278693E+00  1.13852457E+00 -1.18252745E+00  2.16278693E+00
  1.13852457E+00 -1.18252745E+00  2.16278693E+00  1.13852457E+00 -2.62075183E+00
 -6.60645182E-02  5.81144008E-02 -2.62075183E+00 -6.60645182E-02  5.81144008E-02
 -2.62075183E+00 -6.60645182E-02  5.81144008E-02 -2.62075183E+00 -6.60645182E-02
  5.81144008E-02  5.02034262E+00  2.20192148E+00 -1.17487823E+00  5.02034262E+00
  2.20192148E+00 -1.17487823E+00  4.03356255E+00  1.55656994E+00  1.92744526E+00
  4.03356255E+00  1.55656994E+00  1.92744526E+00  2.83937858E+00 -1.65953417E+00
 -2.73704296E+00  2.83937858E+00 -1.65953417E+00 -2.73704296E+00  5.07644094E+00
 -2.33258427E+00 -3.58783670E-01  5.07644094E+00 -2.33258427E+00 -3.58783670E-01
  5.41102098E-01  2.89142565E+00 -2.49093231E+00  5.41102098E-01  2.89142565E+00
 -2.49093231E+00  1.53223949E+00  4.93307739E+00 -7.01698434E-02  1.53223949E+00
  4.93307739E+00 -7.01698434E-02  1.49733712E+00 -4.86006059E+00  5.98039006E-01
  1.49733712E+00 -4.86006059E+00  5.98039006E-01  1.42206715E+00 -2.38828098E+00
  2.81232293E+00  1.42206715E+00 -2.38828098E+00  2.81232293E+00 -2.56273215E+00
  3.69383830E+00  1.24954626E+00 -2.56273215E+00  3.69383830E+00  1.24954626E+00
 -5.52097492E-01  1.74556300E+00  3.07175624E+00 -5.52097492E-01  1.74556300E+00
  3.07175624E+00 -2.36048946E+00 -3.73373736E+00 -8.36812091E-01 -2.36048946E+00
 -3.73373736E+00 -8.36812091E-01
Constraint Structure                       R   N=          57
 -4.80299739E+00  1.24678217E-01 -7.42107758E-01 -1.34600337E+00 -2.31339340E+00
 -4.71987413E-02  3.47337178E+00  1.38222032E+00 -6.48824454E-02  3.24787938E+00
 -1.42126532E+00 -7.19250437E-01  1.08649727E+00  2.95414066E+00 -4.90994518E-01
  1.22200606E+00 -2.82046312E+00  7.91282203E-01 -1.18252745E+00  2.16278693E+00
  1.13852457E+00 -2.62075183E+00 -6.60645182E-02  5.81144008E-02  5.02034262E+00
  2.20192148E+00 -1.17487823E+00  4.03356255E+00  1.55656994E+00  1.92744526E+00
  2.83937858E+00 -1.65953417E+00 -2.73704296E+00  5.07644094E+00 -2.33258427E+00
 -3.58783670E-01  5.41102098E-01  2.89142565E+00 -2.49093231E+00  1.53223949E+00
  4.93307739E+00 -7.01698434E-02  1.49733712E+00 -4.86006059E+00  5.98039006E-01
  1.42206715E+00 -2.38828098E+00  2.81232293E+00 -2.56273215E+00  3.69383830E+00
  1.24954626E+00 -5.52097492E-01  1.74556300E+00  3.07175624E+00 -2.36048946E+00
 -3.73373736E+00 -8.36812091E-01
Num ILSW                                   I              100
ILSW                                       I   N=         100
           0           1           0           0           2           0
           0           0           0           0           0          -1
           0           0           0           0           0           0
           0           0           0           0           1           0
           1           0           0           0           0           0
           0           0      100000           0          -1           0
           0           0           0           0           0           0
           0           0           0           1           1           0
           0           0           1           0           0           0
           0           0           4          40           0           0
           0           0           0           0           0           0
           0           0           0           0           0           0
           0           0           0           0           0           0
           0           0           0           0           0           0
           0           0           0           0           0           0
           0           0           0           0           0           0
           0           0           0           0
Num RLSW                                   I               40
RLSW                                       R   N=          40
  1.00000000E+00  1.00000000E+00  1.00000000E+00  1.00000000E+00  1.00000000E+00
  0.00000000E+00  0.00000000E+00  1.00000000E+00  0.00000000E+00  0.00000000E+00
  0.00000000E+00  0.00000000E+00  1.00000000E+00  0.00000000E+00  0.00000000E+00
  0.00000000E+00  0.00000000E+00  1.00000000E+00  0.00000000E+00  0.00000000E+00
  0.00000000E+00  0.00000000E+00  1.00000000E+00  0.00000000E+00  0.00000000E+00
  0.00000000E+00  0.00000000E+00  1.00000000E+00  0.00000000E+00  0.00000000E+00
  0.00000000E+00  0.00000000E+00  0.00000000E+00  0.00000000E+00  0.00000000E+00
  0.00000000E+00  0.00000000E+00  0.00000000E+00  1.00000000E+00  1.00000000E+00
MxBond                                     I                4
NBond                                      I   N=          19
           1           3           4           4           4           4
           4           3           1           1           1           1
           1           1           1           1           1           1
           1
IBond                                      I   N=          76
           8           0           0           0           6           8
          19           0           4           5           9          10
           3           6          11          12           3           7
          13          14           2           4          15          16
           5           8          17          18           1           2
           7           0           3           0           0           0
           3           0           0           0           4           0
           0           0           4           0           0           0
           5           0           0           0           5           0
           0           0           6           0           0           0
           6           0           0           0           7           0
           0           0           7           0           0           0
           2           0           0           0
RBond                                      R   N=          76
  2.00000000E+00  0.00000000E+00  0.00000000E+00  0.00000000E+00  1.00000000E+00
  1.41000000E+00  1.00000000E+00  0.00000000E+00  1.00000000E+00  1.00000000E+00
  1.00000000E+00  1.00000000E+00  1.00000000E+00  1.00000000E+00  1.00000000E+00
  1.00000000E+00  1.00000000E+00  1.00000000E+00  1.00000000E+00  1.00000000E+00
  1.00000000E+00  1.00000000E+00  1.00000000E+00  1.00000000E+00  1.00000000E+00
  1.00000000E+00  1.00000000E+00  1.00000000E+00  2.00000000E+00  1.41000000E+00
  1.00000000E+00  0.00000000E+00  1.00000000E+00  0.00000000E+00  0.00000000E+00
  0.00000000E+00  1.00000000E+00  0.00000000E+00  0.00000000E+00  0.00000000E+00
  1.00000000E+00  0.00000000E+00  0.00000000E+00  0.00000000E+00  1.00000000E+00
  0.00000000E+00  0.00000000E+00  0.00000000E+00  1.00000000E+00  0.00000000E+00
  0.00000000E+00  0.00000000E+00  1.00000000E+00  0.00000000E+00  0.00000000E+00
  0.00000000E+00  1.00000000E+00  0.00000000E+00  0.00000000E+00  0.00000000E+00
  1.00000000E+00  0.00000000E+00  0.00000000E+00  0.00000000E+00  1.00000000E+00
  0.00000000E+00  0.00000000E+00  0.00000000E+00  1.00000000E+00  0.00000000E+00
  0.00000000E+00  0.00000000E+00  1.00000000E+00  0.00000000E+00  0.00000000E+00
  0.00000000E+00
Virial Ratio                               R      2.002044483356929E+00
SCF Energy                                 R     -3.629433678700390E+02
MP2 Energy                                 R     -3.640584673684248E+02
Total Energy                               R     -3.640584673684248E+02
Post-SCF wavefunction norm                 R      1.648409773056593E+00
RMS Force                                  R      3.940051388004727E-07
RMS Density                                R      3.432709615267292E-09
External E-field                           R   N=          35
  0.00000000E+00  0.00000000E+00  0.00000000E+00  0.00000000E+00  0.00000000E+00
  0.00000000E+00  0.00000000E+00  0.00000000E+00  0.00000000E+00  0.00000000E+00
  0.00000000E+00  0.00000000E+00  0.00000000E+00  0.00000000E+00  0.00000000E+00
  0.00000000E+00  0.00000000E+00  0.00000000E+00  0.00000000E+00  0.00000000E+00
  0.00000000E+00  0.00000000E+00  0.00000000E+00  0.00000000E+00  0.00000000E+00
  0.00000000E+00  0.00000000E+00  0.00000000E+00  0.00000000E+00  0.00000000E+00
  0.00000000E+00  0.00000000E+00  0.00000000E+00  0.00000000E+00  0.00000000E+00
IOpCl                                      I                0
IROHF                                      I                0
Alpha Orbital Energies                     R   N=         142
 -2.05117433E+01 -1.55809553E+01 -1.13429917E+01 -1.12772385E+01 -1.12363545E+01
 -1.12344866E+01 -1.12340967E+01 -1.12331170E+01 -1.35858700E+00 -1.22497199E+00
 -1.09308536E+00 -1.04084405E+00 -9.43958409E-01 -8.86880863E-01 -7.94100216E-01
 -7.61967714E-01 -6.85560783E-01 -6.73543673E-01 -6.24063150E-01 -6.10227068E-01
 -6.00281656E-01 -5.87708061E-01 -5.67665232E-01 -5.42149852E-01 -5.16414996E-01
 -5.13778767E-01 -4.79495114E-01 -4.68785956E-01 -4.67031192E-01 -4.03512674E-01
 -3.75726015E-01  1.95833542E-01  2.10441945E-01  2.36888337E-01  2.50906984E-01
  2.78979737E-01  2.85205068E-01  2.95463137E-01  3.11212998E-01  3.16831359E-01
  3.27312784E-01  3.39043498E-01  3.45192318E-01  3.74510873E-01  3.98342136E-01
  4.08410944E-01  4.30732572E-01  4.50844584E-01  4.90242069E-01  5.17932305E-01
  6.09124221E-01  6.94549961E-01  7.11777638E-01  7.23670746E-01  7.44371408E-01
  7.63292758E-01  7.91281569E-01  8.20312583E-01  8.59848334E-01  8.82221733E-01
  8.95859238E-01  9.18699277E-01  9.42006603E-01  9.63258491E-01  9.99433404E-01
  1.00106260E+00  1.03810978E+00  1.06634572E+00  1.07647820E+00  1.10452662E+00
  1.12364239E+00  1.13096474E+00  1.13774560E+00  1.14155331E+00  1.16691932E+00
  1.18844243E+00  1.19247838E+00  1.19358475E+00  1.21374188E+00  1.23170307E+00
  1.23829701E+00  1.25354378E+00  1.29013856E+00  1.33288335E+00  1.36729035E+00
  1.39295465E+00  1.42353664E+00  1.52336176E+00  1.58124804E+00  1.65455983E+00
  1.67694640E+00  1.71524476E+00  1.72928408E+00  1.81683286E+00  1.83087455E+00
  1.89550432E+00  1.92516901E+00  1.99874756E+00  2.02750942E+00  2.06678131E+00
  2.09069000E+00  2.11801190E+00  2.14926233E+00  2.17532125E+00  2.19570674E+00
  2.22400358E+00  2.23707640E+00  2.24772242E+00  2.30356010E+00  2.32227239E+00
  2.35628744E+00  2.37865576E+00  2.40758974E+00  2.44483919E+00  2.48928596E+00
  2.57605763E+00  2.62300696E+00  2.66701394E+00  2.68139290E+00  2.68895605E+00
  2.70721630E+00  2.72068996E+00  2.79119362E+00  2.87884595E+00  2.89344129E+00
  2.97155293E+00  2.99178674E+00  3.00011887E+00  3.01697544E+00  3.03995924E+00
  3.10167479E+00  3.27677806E+00  3.37827580E+00  3.49539434E+00  4.35875859E+00
  4.45462916E+00  4.56214358E+00  4.69308711E+00  4.78938105E+00  4.93079677E+00
  4.96765311E+00  5.03846486E+00
Alpha MO coefficients                      R   N=       20164
  9.94688949E-01  2.09554729E-02  1.42142612E-03 -1.51311106E-04  5.12458007E-04
  4.58285911E-03 -3.64029956E-05 -1.94832368E-05 -8.24215241E-06 -3.72043096E-03
 -3.91829911E-03 -4.04553358E-03 -4.04878523E-05  1.67187372E-04  4.29598304E-05
 -8.36199003E-06 -2.72510328E-05  3.87331464E-05 -1.55424473E-05  1.18395782E-05
  9.08433646E-05 -1.25105342E-04  4.11455796E-05 -3.26916837E-05 -8.44865406E-05
  3.79997096E-05 -4.03831585E-05  3.99731660E-05 -6.75969247E-06  4.22854859E-05
 -3.42575957E-06 -1.72618567E-05 -1.23571850E-06  4.25517982E-06 -3.79528677E-06
  1.08974672E-04 -7.72735932E-05 -7.55000513E-06  1.53505381E-05  1.82080514E-06
 -7.04677807E-06 -3.99935805E-06  2.11695982E-06  2.14300610E-06  2.10404148E-06
  1.40843716E-06  5.30487344E-06 -8.74381108E-06 -4.35999320E-06 -7.05264022E-07
 -2.15941355E-05  2.22778512E-05  1.21199020E-05  2.11746083E-05  5.53350377E-06
 -4.99651718E-07  2.49744919E-06 -3.10841305E-06 -2.62993055E-07  2.57944511E-06
  8.32721934E-06  3.24937582E-05 -9.11767043E-06 -1.20366605E-05  2.76049724E-06
 -2.08903637E-04  3.00217289E-05  1.05357323E-04 -3.08567113E-05  1.46117822E-05
  8.19666228E-06  1.64129577E-05 -1.04875084E-06 -1.16633945E-06  1.88689073E-06
  7.39331638E-06  2.14739210E-05 -2.65569975E-05  1.68275804E-05 -5.80246497E-06
 -3.34264281E-05  1.28992932E-06 -1.17109075E-04 -5.29614330E-05  3.99254800E-05
  6.91623901E-06  1.61320928E-05  1.02312050E-05  1.25791048E-05 -1.12197291E-07
 -3.09110122E-06  6.14155495E-06  2.99403220E-05  8.89413205E-06  8.49034933E-06
 -9.37709491E-05  7.82219672E-05  1.45195878E-04  2.99196612E-05 -5.25622815E-05
  1.39172479E-05 -2.51450924E-05 -2.12382629E-05 -2.37121206E-05  4.58937943E-06
 -7.96622926E-06  4.89685133E-04 -8.05397893E-06 -9.74751474E-06 -8.76636745E-08
 -3.10741261E-04  6.29013077E-04  1.44458762E-04  2.59225757E-04 -6.75155793E-04
 -5.43201634E-05 -1.35353125E-04  7.49122667E-05 -2.60803405E-04  2.90798879E-05
  1.45615211E-06  1.49243150E-05 -1.07370330E-05 -9.07366821E-08  3.99437347E-06
  1.54833396E-05 -1.42679308E-06 -5.47645699E-06  1.58285916E-05  9.89007159E-06
  1.88416669E-06 -3.67088665E-05 -1.07870388E-05 -4.86343857E-05  1.87437842E-05
  3.05777867E-05  1.02875154E-05 -6.31655645E-05  8.15433563E-06 -3.75434439E-05
 -2.27336727E-05 -3.21448045E-05 -1.56972658E-05 -1.12957518E-04 -1.97117845E-05
 -4.58737138E-06 -1.25879256E-05  6.61342097E-04  1.13637201E-04  2.67940160E-04