
    -----------------------------------------------------------------------
          Psi4: An Open-Source Ab Initio Electronic Structure Package
                               Psi4 1.4a3.dev225 

                         Git: Rev {master} 7105e37 


    D. G. A. Smith, L. A. Burns, A. C. Simmonett, R. M. Parrish,
    M. C. Schieber, R. Galvelis, P. Kraus, H. Kruse, R. Di Remigio,
    A. Alenaizan, A. M. James, S. Lehtola, J. P. Misiewicz, M. Scheurer,
    R. A. Shaw, J. B. Schriber, Y. Xie, Z. L. Glick, D. A. Sirianni,
    J. S. O'Brien, J. M. Waldrop, A. Kumar, E. G. Hohenstein,
    B. P. Pritchard, B. R. Brooks, H. F. Schaefer III, A. Yu. Sokolov,
    K. Patkowski, A. E. DePrince III, U. Bozkaya, R. A. King,
    F. A. Evangelista, J. M. Turney, T. D. Crawford, C. D. Sherrill,
    J. Chem. Phys. 152(18) 184108 (2020). https://doi.org/10.1063/5.0006002

                            Additional Code Authors
    E. T. Seidl, C. L. Janssen, E. F. Valeev, M. L. Leininger,
    J. F. Gonthier, R. M. Richard, H. R. McAlexander, M. Saitow, X. Wang,
    P. Verma, and M. H. Lechner

             Previous Authors, Complete List of Code Contributors,
                       and Citations for Specific Modules
    https://github.com/psi4/psi4/blob/master/codemeta.json
    https://github.com/psi4/psi4/graphs/contributors
    http://psicode.org/psi4manual/master/introduction.html#citing-psifour

    -----------------------------------------------------------------------


    Psi4 started on: Saturday, 06 March 2021 09:00PM

    Process ID: 115341
    Host:       c418-134.stampede2.tacc.utexas.edu
    PSIDATADIR: /home1/07844/xy3866/miniconda3/envs/p4env/share/psi4
    Memory:     500.0 MiB
    Threads:    32
    
  ==> Input File <==

--------------------------------------------------------------------------
#psi4
#
memory 32 gb

molecule  {
0 1
  O        0.0109280     1.9504830    -1.2088660
  N        1.2223596     0.4483558     0.0769468
  C        3.6816010    -0.9509880     0.4072830
  C        3.5342200     0.1692850    -0.6230390
  C        2.3335540    -1.6180450     0.6838790
  C        2.4642000     1.1676880    -0.1911000
  C        1.2914730    -0.5760260     1.0805660
  C        0.0527250     0.9288280    -0.5097470
  C       -1.1808260     0.1020470    -0.2945890
  C       -2.2823960     0.6556420     0.3835130
  C       -1.2622800    -1.1716740    -0.8705440
  C       -3.4454200    -0.1153760     0.4879690
  C       -2.2065840     2.0368470     0.9809810
  C       -2.4366510    -1.9182050    -0.7675160
  C       -3.5304630    -1.3875060    -0.0828830
  H        4.4130950    -1.6928310     0.0671840
  H        4.0710030    -0.5292960     1.3442740
  H        4.4878230     0.6919580    -0.7653020
  H        3.2457620    -0.2529490    -1.5933530
  H        1.9831950    -2.1398170    -0.2152240
  H        2.4267450    -2.3652010     1.4815110
  H        2.7768740     1.6847790     0.7291870
  H        2.2671880     1.9220510    -0.9540200
  H        0.3069530    -1.0243470     1.2170770
  H        1.5834140    -0.1085280     2.0346680
  H       -0.4031770    -1.5700500    -1.4080150
  H       -4.3043690     0.2928860     1.0181070
  H       -2.0253310     2.7815300     0.2022010
  H       -3.1368610     2.2826280     1.5002420
  H       -1.3844770     2.1136550     1.7007310
  H       -2.4977120    -2.9041740    -1.2220500
  H       -4.4499260    -1.9612690     0.0072960
units angstrom
no_reorient  #important for SAPT in psi4, default
symmetry c1  #important for SAPT in psi4, default
}

set PROPERTIES_ORIGIN ["COM"]
properties('MP2/aug-cc-pvtz', properties = ['dipole'])
--------------------------------------------------------------------------

  Memory set to  29.802 GiB by Python driver.
    SCF Algorithm Type (re)set to DF.

*** tstart() called on c418-134.stampede2.tacc.utexas.edu
*** at Sat Mar  6 21:00:05 2021

   => Loading Basis Set <=

    Name: AUG-CC-PVTZ
    Role: ORBITAL
    Keyword: BASIS
    atoms 1     entry O          line   331 file /home1/07844/xy3866/miniconda3/envs/p4env/share/psi4/basis/aug-cc-pvtz.gbs 
    atoms 2     entry N          line   285 file /home1/07844/xy3866/miniconda3/envs/p4env/share/psi4/basis/aug-cc-pvtz.gbs 
    atoms 3-15  entry C          line   239 file /home1/07844/xy3866/miniconda3/envs/p4env/share/psi4/basis/aug-cc-pvtz.gbs 
    atoms 16-32 entry H          line    40 file /home1/07844/xy3866/miniconda3/envs/p4env/share/psi4/basis/aug-cc-pvtz.gbs 


         ---------------------------------------------------------
                                   SCF
               by Justin Turney, Rob Parrish, Andy Simmonett
                          and Daniel G. A. Smith
                              RHF Reference
                       32 Threads,  30517 MiB Core
         ---------------------------------------------------------

  ==> Geometry <==

    Molecular point group: c1
    Full point group: C1

    Geometry (in Angstrom), charge = 0, multiplicity = 1:

       Center              X                  Y                   Z               Mass       
    ------------   -----------------  -----------------  -----------------  -----------------
         O            0.055811036756     1.937950930778    -1.184959405758    15.994914619570
         N            1.267242636756     0.435823730778     0.100853394242    14.003074004430
         C            3.726484036756    -0.963520069222     0.431189594242    12.000000000000
         C            3.579103036756     0.156752930778    -0.599132405758    12.000000000000
         C            2.378437036756    -1.630577069222     0.707785594242    12.000000000000
         C            2.509083036756     1.155155930778    -0.167193405758    12.000000000000
         C            1.336356036756    -0.588558069222     1.104472594242    12.000000000000
         C            0.097608036756     0.916295930778    -0.485840405758    12.000000000000
         C           -1.135942963244     0.089514930778    -0.270682405758    12.000000000000
         C           -2.237512963244     0.643109930778     0.407419594242    12.000000000000
         C           -1.217396963244    -1.184206069222    -0.846637405758    12.000000000000
         C           -3.400536963244    -0.127908069222     0.511875594242    12.000000000000
         C           -2.161700963244     2.024314930778     1.004887594242    12.000000000000
         C           -2.391767963244    -1.930737069222    -0.743609405758    12.000000000000
         C           -3.485579963244    -1.400038069222    -0.058976405758    12.000000000000
         H            4.457978036756    -1.705363069222     0.091090594242     1.007825032230
         H            4.115886036756    -0.541828069222     1.368180594242     1.007825032230
         H            4.532706036756     0.679425930778    -0.741395405758     1.007825032230
         H            3.290645036756    -0.265481069222    -1.569446405758     1.007825032230
         H            2.028078036756    -2.152349069222    -0.191317405758     1.007825032230
         H            2.471628036756    -2.377733069222     1.505417594242     1.007825032230
         H            2.821757036756     1.672246930778     0.753093594242     1.007825032230
         H            2.312071036756     1.909518930778    -0.930113405758     1.007825032230
         H            0.351836036756    -1.036879069222     1.240983594242     1.007825032230
         H            1.628297036756    -0.121060069222     2.058574594242     1.007825032230
         H           -0.358293963244    -1.582582069222    -1.384108405758     1.007825032230
         H           -4.259485963244     0.280353930778     1.042013594242     1.007825032230
         H           -1.980447963244     2.768997930778     0.226107594242     1.007825032230
         H           -3.091977963244     2.270095930778     1.524148594242     1.007825032230
         H           -1.339593963244     2.101122930778     1.724637594242     1.007825032230
         H           -2.452828963244    -2.916706069222    -1.198143405758     1.007825032230
         H           -4.405042963244    -1.973801069222     0.031202594242     1.007825032230

  Running in c1 symmetry.

  Rotational constants: A =      0.03826  B =      0.01321  C =      0.01127 [cm^-1]
  Rotational constants: A =   1146.87155  B =    396.13991  C =    337.94472 [MHz]
  Nuclear repulsion =  999.909096037156019

  Charge       = 0
  Multiplicity = 1
  Electrons    = 110
  Nalpha       = 55
  Nbeta        = 55

  ==> Algorithm <==

  SCF Algorithm Type is DF.
  DIIS enabled.
  MOM disabled.
  Fractional occupation disabled.
  Guess Type is SAD.
  Energy threshold   = 1.00e-10
  Density threshold  = 1.00e-10
  Integral threshold = 1.00e-12

  ==> Primary Basis <==

  Basis Set: AUG-CC-PVTZ
    Blend: AUG-CC-PVTZ
    Number of shells: 363
    Number of basis functions: 1081
    Number of Cartesian functions: 1250
    Spherical Harmonics?: true
    Max angular momentum: 3

   => Loading Basis Set <=

    Name: (AUG-CC-PVTZ AUX)
    Role: JKFIT
    Keyword: DF_BASIS_SCF
    atoms 1     entry O          line   286 file /home1/07844/xy3866/miniconda3/envs/p4env/share/psi4/basis/aug-cc-pvtz-jkfit.gbs 
    atoms 2     entry N          line   224 file /home1/07844/xy3866/miniconda3/envs/p4env/share/psi4/basis/aug-cc-pvtz-jkfit.gbs 
    atoms 3-15  entry C          line   162 file /home1/07844/xy3866/miniconda3/envs/p4env/share/psi4/basis/aug-cc-pvtz-jkfit.gbs 
    atoms 16-32 entry H          line    70 file /home1/07844/xy3866/miniconda3/envs/p4env/share/psi4/basis/aug-cc-pvtz-jkfit.gbs 

  ==> Integral Setup <==

  DFHelper Memory: AOs need 17.446 GiB; user supplied 22.352 GiB. Using in-core AOs.

  ==> MemDFJK: Density-Fitted J/K Matrices <==

    J tasked:                   Yes
    K tasked:                   Yes
    wK tasked:                   No
    OpenMP threads:              32
    Memory [MiB]:             22888
    Algorithm:                 Core
    Schwarz Cutoff:           1E-12
    Mask sparsity (%):      17.1592
    Fitting Condition:        1E-10

   => Auxiliary Basis Set <=

  Basis Set: (AUG-CC-PVTZ AUX)
    Blend: AUG-CC-PVTZ-JKFIT
    Number of shells: 688
    Number of basis functions: 2342
    Number of Cartesian functions: 2900
    Spherical Harmonics?: true
    Max angular momentum: 4

  Minimum eigenvalue in the overlap matrix is 3.5872019937E-07.
  Reciprocal condition number of the overlap matrix is 1.4232017188E-08.
    Using symmetric orthogonalization.

  ==> Pre-Iterations <==

  SCF Guess: Superposition of Atomic Densities via on-the-fly atomic UHF (no occupation information).

   -------------------------
    Irrep   Nso     Nmo    
   -------------------------
     A       1081    1081 
   -------------------------
    Total    1081    1081
   -------------------------

  ==> Iterations <==

                           Total Energy        Delta E     RMS |[F,P]|

   @DF-RHF iter SAD:  -631.65006615527204   -6.31650e+02   0.00000e+00 
   @DF-RHF iter   1:  -631.23795701413042    4.12109e-01   8.40673e-04 DIIS
   @DF-RHF iter   2:  -631.62236113326196   -3.84404e-01   4.41712e-04 DIIS
   @DF-RHF iter   3:  -631.72106243042924   -9.87013e-02   9.54070e-05 DIIS
   @DF-RHF iter   4:  -631.72782776210533   -6.76533e-03   3.82011e-05 DIIS
   @DF-RHF iter   5:  -631.72876063625085   -9.32874e-04   1.00389e-05 DIIS
   @DF-RHF iter   6:  -631.72885052771471   -8.98915e-05   4.14303e-06 DIIS
   @DF-RHF iter   7:  -631.72886872251070   -1.81948e-05   1.34329e-06 DIIS
   @DF-RHF iter   8:  -631.72887263642133   -3.91391e-06   6.93219e-07 DIIS
   @DF-RHF iter   9:  -631.72887348376548   -8.47344e-07   2.28830e-07 DIIS
   @DF-RHF iter  10:  -631.72887357769036   -9.39249e-08   7.53778e-08 DIIS
   @DF-RHF iter  11:  -631.72887358567755   -7.98718e-09   2.84320e-08 DIIS
   @DF-RHF iter  12:  -631.72887358649996   -8.22411e-10   1.26561e-08 DIIS
   @DF-RHF iter  13:  -631.72887358672244   -2.22485e-10   3.64282e-09 DIIS
   @DF-RHF iter  14:  -631.72887358675086   -2.84217e-11   1.74008e-09 DIIS
   @DF-RHF iter  15:  -631.72887358675723   -6.36646e-12   8.98725e-10 DIIS
   @DF-RHF iter  16:  -631.72887358676144   -4.20641e-12   4.08861e-10 DIIS
   @DF-RHF iter  17:  -631.72887358676155   -1.13687e-13   1.75958e-10 DIIS
   @DF-RHF iter  18:  -631.72887358676189   -3.41061e-13   5.53001e-11 DIIS
  Energy and wave function converged.


  ==> Post-Iterations <==

    Orbital Energies [Eh]
    ---------------------

    Doubly Occupied:                                                      

       1A    -20.515544     2A    -15.582639     3A    -11.353275  
       4A    -11.264248     5A    -11.253994     6A    -11.252428  
       7A    -11.246873     8A    -11.245608     9A    -11.243098  
      10A    -11.239519    11A    -11.237401    12A    -11.229015  
      13A    -11.227407    14A    -11.224675    15A    -11.220908  
      16A     -1.367877    17A     -1.251512    18A     -1.161957  
      19A     -1.081204    20A     -1.051230    21A     -1.037118  
      22A     -1.024228    23A     -0.942962    24A     -0.915577  
      25A     -0.867304    26A     -0.845078    27A     -0.815723  
      28A     -0.789887    29A     -0.743386    30A     -0.712238  
      31A     -0.667751    32A     -0.653194    33A     -0.648563  
      34A     -0.626150    35A     -0.621106    36A     -0.615644  
      37A     -0.596347    38A     -0.586756    39A     -0.576194  
      40A     -0.571955    41A     -0.563807    42A     -0.547050  
      43A     -0.542351    44A     -0.523676    45A     -0.508674  
      46A     -0.501580    47A     -0.491802    48A     -0.489234  
      49A     -0.478655    50A     -0.468172    51A     -0.462282  
      52A     -0.418337    53A     -0.364101    54A     -0.340497  
      55A     -0.330527  

    Virtual:                                                              

      56A      0.024766    57A      0.029026    58A      0.030348  
      59A      0.034931    60A      0.039855    61A      0.040236  
      62A      0.049375    63A      0.051968    64A      0.054105  
      65A      0.055351    66A      0.058569    67A      0.068745  
      68A      0.070558    69A      0.072905    70A      0.077654  
      71A      0.079001    72A      0.087325    73A      0.095137  
      74A      0.099602    75A      0.102642    76A      0.108174  
      77A      0.109762    78A      0.111537    79A      0.112702  
      80A      0.116191    81A      0.119314    82A      0.121275  
      83A      0.123746    84A      0.124854    85A      0.126859  
      86A      0.130271    87A      0.131811    88A      0.135563  
      89A      0.139831    90A      0.140328    91A      0.143170  
      92A      0.148069    93A      0.150555    94A      0.152161  
      95A      0.153955    96A      0.157088    97A      0.158565  
      98A      0.166307    99A      0.168100   100A      0.170970  
     101A      0.171935   102A      0.175290   103A      0.182944  
     104A      0.184174   105A      0.187173   106A      0.190749  
     107A      0.193666   108A      0.194231   109A      0.198899  
     110A      0.202288   111A      0.207502   112A      0.210248  
     113A      0.216754   114A      0.222944   115A      0.225928  
     116A      0.229089   117A      0.233732   118A      0.242286  
     119A      0.243453   120A      0.245076   121A      0.250116  
     122A      0.253022   123A      0.257910   124A      0.262609  
     125A      0.268956   126A      0.270753   127A      0.272820  
     128A      0.277019   129A      0.285667   130A      0.286475  
     131A      0.289876   132A      0.291524   133A      0.298101  
     134A      0.300181   135A      0.306964   136A      0.308046  
     137A      0.311935   138A      0.312903   139A      0.316371  
     140A      0.321118   141A      0.321969   142A      0.326301  
     143A      0.330798   144A      0.332133   145A      0.335133  
     146A      0.337718   147A      0.341497   148A      0.343709  
     149A      0.345874   150A      0.347126   151A      0.351263  
     152A      0.352704   153A      0.355040   154A      0.359273  
     155A      0.362910   156A      0.367201   157A      0.372010  
     158A      0.373537   159A      0.375931   160A      0.381751  
     161A      0.384302   162A      0.386015   163A      0.393171  
     164A      0.397187   165A      0.400084   166A      0.403018  
     167A      0.406814   168A      0.411889   169A      0.413662  
     170A      0.415992   171A      0.418221   172A      0.421808  
     173A      0.425208   174A      0.429833   175A      0.432400  
     176A      0.434360   177A      0.438622   178A      0.439351  
     179A      0.441111   180A      0.447836   181A      0.451825  
     182A      0.453785   183A      0.456511   184A      0.459370  
     185A      0.462308   186A      0.468217   187A      0.473659  
     188A      0.475877   189A      0.476721   190A      0.480576  
     191A      0.482038   192A      0.488636   193A      0.490746  
     194A      0.492173   195A      0.493960   196A      0.498361  
     197A      0.500151   198A      0.505387   199A      0.506487  
     200A      0.507883   201A      0.513097   202A      0.513598  
     203A      0.514610   204A      0.518283   205A      0.520845  
     206A      0.524538   207A      0.525903   208A      0.527900  
     209A      0.530162   210A      0.534657   211A      0.535527  
     212A      0.543797   213A      0.546139   214A      0.547431  
     215A      0.549437   216A      0.554727   217A      0.555738  
     218A      0.562565   219A      0.563604   220A      0.565592  
     221A      0.566406   222A      0.571244   223A      0.574648  
     224A      0.579625   225A      0.582299   226A      0.585159  
     227A      0.590210   228A      0.591202   229A      0.597688  
     230A      0.601282   231A      0.602752   232A      0.607659  
     233A      0.611055   234A      0.615411   235A      0.616705  
     236A      0.620403   237A      0.624135   238A      0.626421  
     239A      0.633448   240A      0.637410   241A      0.640463  
     242A      0.646038   243A      0.649701   244A      0.658145  
     245A      0.661385   246A      0.663982   247A      0.664493  
     248A      0.670779   249A      0.676804   250A      0.679031  
     251A      0.683733   252A      0.689577   253A      0.693546  
     254A      0.696610   255A      0.698668   256A      0.700376  
     257A      0.707822   258A      0.709806   259A      0.714447  
     260A      0.714613   261A      0.724455   262A      0.728603  
     263A      0.729436   264A      0.733920   265A      0.738275  
     266A      0.739819   267A      0.747374   268A      0.750630  
     269A      0.755152   270A      0.758458   271A      0.765580  
     272A      0.770139   273A      0.775314   274A      0.779539  
     275A      0.783120   276A      0.786364   277A      0.797059  
     278A      0.801666   279A      0.803801   280A      0.807425  
     281A      0.810289   282A      0.817989   283A      0.825791  
     284A      0.828830   285A      0.832555   286A      0.836049  
     287A      0.842760   288A      0.847097   289A      0.849575  
     290A      0.859576   291A      0.862403   292A      0.865952  
     293A      0.867804   294A      0.869969   295A      0.872713  
     296A      0.875553   297A      0.883093   298A      0.888094  
     299A      0.894222   300A      0.897625   301A      0.899234  
     302A      0.900430   303A      0.906529   304A      0.909957  
     305A      0.913976   306A      0.916016   307A      0.923113  
     308A      0.927291   309A      0.931213   310A      0.934018  
     311A      0.940791   312A      0.944428   313A      0.946190  
     314A      0.951248   315A      0.952909   316A      0.957305  
     317A      0.961972   318A      0.965153   319A      0.968745  
     320A      0.970555   321A      0.972904   322A      0.977184  
     323A      0.982747   324A      0.985766   325A      0.992358  
     326A      0.995663   327A      0.997994   328A      1.004851  
     329A      1.010522   330A      1.015744   331A      1.017096  
     332A      1.020610   333A      1.030857   334A      1.032246  
     335A      1.038505   336A      1.040377   337A      1.042167  
     338A      1.045242   339A      1.048663   340A      1.054342  
     341A      1.055413   342A      1.059000   343A      1.063492  
     344A      1.067697   345A      1.073687   346A      1.075589  
     347A      1.081071   348A      1.083105   349A      1.088474  
     350A      1.091336   351A      1.095878   352A      1.097136  
     353A      1.101898   354A      1.103892   355A      1.106189  
     356A      1.113084   357A      1.114277   358A      1.117397  
     359A      1.124262   360A      1.125451   361A      1.126755  
     362A      1.131853   363A      1.137682   364A      1.139451  
     365A      1.144931   366A      1.145924   367A      1.149424  
     368A      1.150179   369A      1.157395   370A      1.161123  
     371A      1.165526   372A      1.167302   373A      1.168934  
     374A      1.177514   375A      1.182636   376A      1.189826  
     377A      1.193838   378A      1.200217   379A      1.204847  
     380A      1.205326   381A      1.209755   382A      1.213199  
     383A      1.220225   384A      1.221996   385A      1.225934  
     386A      1.233208   387A      1.236128   388A      1.237314  
     389A      1.241312   390A      1.245187   391A      1.250895  
     392A      1.255756   393A      1.257076   394A      1.263606  
     395A      1.266898   396A      1.269190   397A      1.274287  
     398A      1.280693   399A      1.283148   400A      1.287818  
     401A      1.294963   402A      1.297518   403A      1.299232  
     404A      1.310097   405A      1.313331   406A      1.318427  
     407A      1.324137   408A      1.333393   409A      1.336277  
     410A      1.339987   411A      1.343275   412A      1.345888  
     413A      1.353665   414A      1.357907   415A      1.363312  
     416A      1.366445   417A      1.369172   418A      1.376266  
     419A      1.385090   420A      1.389747   421A      1.390562  
     422A      1.397081   423A      1.400473   424A      1.406039  
     425A      1.410014   426A      1.414549   427A      1.423812  
     428A      1.428870   429A      1.430720   430A      1.436268  
     431A      1.440723   432A      1.446095   433A      1.454965  
     434A      1.457477   435A      1.461107   436A      1.464830  
     437A      1.475062   438A      1.477594   439A      1.487261  
     440A      1.489837   441A      1.494287   442A      1.498847  
     443A      1.500678   444A      1.504201   445A      1.511777  
     446A      1.517404   447A      1.519296   448A      1.522531  
     449A      1.531977   450A      1.541345   451A      1.543905  
     452A      1.548727   453A      1.553848   454A      1.557456  
     455A      1.563610   456A      1.566093   457A      1.573885  
     458A      1.584285   459A      1.585415   460A      1.589197  
     461A      1.591290   462A      1.596590   463A      1.601669  
     464A      1.607981   465A      1.614367   466A      1.617634  
     467A      1.619706   468A      1.624578   469A      1.628385  
     470A      1.638880   471A      1.643513   472A      1.648988  
     473A      1.653203   474A      1.660720   475A      1.663234  
     476A      1.667642   477A      1.675331   478A      1.679171  
     479A      1.682531   480A      1.691046   481A      1.694116  
     482A      1.695542   483A      1.703008   484A      1.706124  
     485A      1.715872   486A      1.721532   487A      1.726740  
     488A      1.732015   489A      1.737794   490A      1.749348  
     491A      1.750081   492A      1.752505   493A      1.760912  
     494A      1.768128   495A      1.776679   496A      1.778073  
     497A      1.782363   498A      1.784966   499A      1.789555  
     500A      1.793644   501A      1.802767   502A      1.804812  
     503A      1.812960   504A      1.814592   505A      1.819253  
     506A      1.829059   507A      1.831496   508A      1.832866  
     509A      1.836094   510A      1.846790   511A      1.852625  
     512A      1.855999   513A      1.862016   514A      1.863915  
     515A      1.866433   516A      1.877431   517A      1.879525  
     518A      1.886412   519A      1.888053   520A      1.889331  
     521A      1.894600   522A      1.897984   523A      1.900875  
     524A      1.904340   525A      1.913833   526A      1.922622  
     527A      1.933877   528A      1.938573   529A      1.943427  
     530A      1.946865   531A      1.949993   532A      1.955662  
     533A      1.965270   534A      1.973056   535A      1.979542  
     536A      1.982245   537A      1.990065   538A      1.992295  
     539A      1.993252   540A      1.996419   541A      2.001326  
     542A      2.002936   543A      2.010799   544A      2.017577  
     545A      2.027463   546A      2.030492   547A      2.032202  
     548A      2.040056   549A      2.047154   550A      2.050190  
     551A      2.058549   552A      2.063478   553A      2.066595  
     554A      2.071738   555A      2.075041   556A      2.081664  
     557A      2.091303   558A      2.092893   559A      2.099252  
     560A      2.101819   561A      2.107184   562A      2.116667  
     563A      2.126831   564A      2.130791   565A      2.136180  
     566A      2.139364   567A      2.146030   568A      2.148728  
     569A      2.151642   570A      2.159400   571A      2.160536  
     572A      2.176032   573A      2.180635   574A      2.188480  
     575A      2.195189   576A      2.199809   577A      2.212341  
     578A      2.213136   579A      2.217240   580A      2.221748  
     581A      2.233382   582A      2.239341   583A      2.249832  
     584A      2.252767   585A      2.258270   586A      2.268060  
     587A      2.283222   588A      2.288228   589A      2.291832  
     590A      2.294942   591A      2.300993   592A      2.311985  
     593A      2.316626   594A      2.326620   595A      2.327845  
     596A      2.331421   597A      2.340317   598A      2.345063  
     599A      2.347809   600A      2.356712   601A      2.361314  
     602A      2.370924   603A      2.376176   604A      2.377461  
     605A      2.391320   606A      2.398846   607A      2.407204  
     608A      2.418613   609A      2.423077   610A      2.424648  
     611A      2.441458   612A      2.444725   613A      2.452228  
     614A      2.457536   615A      2.470728   616A      2.478122  
     617A      2.490224   618A      2.494493   619A      2.498095  
     620A      2.503543   621A      2.513223   622A      2.520948  
     623A      2.533413   624A      2.536601   625A      2.547795  
     626A      2.550267   627A      2.565395   628A      2.577486  
     629A      2.587968   630A      2.593069   631A      2.602133  
     632A      2.612645   633A      2.622419   634A      2.626466  
     635A      2.641700   636A      2.652871   637A      2.654383  
     638A      2.660806   639A      2.667797   640A      2.682090  
     641A      2.689389   642A      2.694719   643A      2.702943  
     644A      2.709300   645A      2.715059   646A      2.727460  
     647A      2.733089   648A      2.739018   649A      2.762975  
     650A      2.773029   651A      2.786493   652A      2.799732  
     653A      2.802871   654A      2.817238   655A      2.818757  
     656A      2.826332   657A      2.842254   658A      2.857310  
     659A      2.867427   660A      2.874260   661A      2.881827  
     662A      2.891875   663A      2.901352   664A      2.950464  
     665A      2.956987   666A      2.970400   667A      2.980647  
     668A      2.996621   669A      3.000717   670A      3.023791  
     671A      3.045703   672A      3.063666   673A      3.115499  
     674A      3.132559   675A      3.152816   676A      3.161682  
     677A      3.182256   678A      3.195970   679A      3.207933  
     680A      3.224217   681A      3.235083   682A      3.256014  
     683A      3.274446   684A      3.283121   685A      3.297344  
     686A      3.309465   687A      3.331218   688A      3.349411  
     689A      3.364817   690A      3.378916   691A      3.394203  
     692A      3.403418   693A      3.413743   694A      3.419540  
     695A      3.426027   696A      3.442234   697A      3.457251  
     698A      3.469678   699A      3.483076   700A      3.485618  
     701A      3.497698   702A      3.509548   703A      3.513583  
     704A      3.524714   705A      3.528108   706A      3.537535  
     707A      3.540701   708A      3.548871   709A      3.559534  
     710A      3.561218   711A      3.573200   712A      3.579761  
     713A      3.582827   714A      3.595535   715A      3.607429  
     716A      3.612263   717A      3.618920   718A      3.626155  
     719A      3.630544   720A      3.637378   721A      3.646575  
     722A      3.648760   723A      3.659788   724A      3.666653  
     725A      3.675410   726A      3.685791   727A      3.694965  
     728A      3.696423   729A      3.703052   730A      3.709637  
     731A      3.712985   732A      3.719526   733A      3.734022  
     734A      3.742973   735A      3.749588   736A      3.752730  
     737A      3.766585   738A      3.769999   739A      3.776425  
     740A      3.781454   741A      3.785464   742A      3.797829  
     743A      3.803799   744A      3.816024   745A      3.824096  
     746A      3.829229   747A      3.837052   748A      3.838300  
     749A      3.843589   750A      3.851137   751A      3.855705  
     752A      3.865040   753A      3.874709   754A      3.875509  
     755A      3.881081   756A      3.894882   757A      3.898910  
     758A      3.901728   759A      3.910353   760A      3.912318  
     761A      3.916730   762A      3.926836   763A      3.932735  
     764A      3.935031   765A      3.945734   766A      3.952296  
     767A      3.957624   768A      3.961880   769A      3.964303  
     770A      3.978734   771A      3.981286   772A      3.988760  
     773A      3.993849   774A      3.999514   775A      4.004475  
     776A      4.012252   777A      4.015983   778A      4.018931  
     779A      4.028577   780A      4.029937   781A      4.038875  
     782A      4.042909   783A      4.054381   784A      4.056892  
     785A      4.059746   786A      4.066360   787A      4.069639  
     788A      4.076178   789A      4.080826   790A      4.086096  
     791A      4.093889   792A      4.098327   793A      4.105434  
     794A      4.115933   795A      4.123825   796A      4.129025  
     797A      4.134705   798A      4.140548   799A      4.156370  
     800A      4.165491   801A      4.171786   802A      4.178134  
     803A      4.184405   804A      4.190986   805A      4.199635  
     806A      4.206663   807A      4.207148   808A      4.215460  
     809A      4.225029   810A      4.231121   811A      4.234007  
     812A      4.239158   813A      4.252475   814A      4.258284  
     815A      4.261405   816A      4.264841   817A      4.275626  
     818A      4.284899   819A      4.287884   820A      4.290831  
     821A      4.299246   822A      4.308404   823A      4.319608  
     824A      4.328086   825A      4.330035   826A      4.341770  
     827A      4.346318   828A      4.354152   829A      4.358545  
     830A      4.369922   831A      4.376005   832A      4.384194  
     833A      4.388069   834A      4.390637   835A      4.396991  
     836A      4.407175   837A      4.411821   838A      4.416978  
     839A      4.422576   840A      4.428692   841A      4.436846  
     842A      4.445725   843A      4.451893   844A      4.460721  
     845A      4.466124   846A      4.471332   847A      4.482095  
     848A      4.488304   849A      4.495987   850A      4.503561  
     851A      4.520393   852A      4.522996   853A      4.534157  
     854A      4.548406   855A      4.549071   856A      4.553641  
     857A      4.561715   858A      4.567262   859A      4.582518  
     860A      4.588487   861A      4.599365   862A      4.614414  
     863A      4.618499   864A      4.629622   865A      4.637506  
     866A      4.653431   867A      4.657579   868A      4.679634  
     869A      4.684946   870A      4.692414   871A      4.699010  
     872A      4.709957   873A      4.714168   874A      4.720050  
     875A      4.726253   876A      4.737399   877A      4.741294  
     878A      4.751120   879A      4.761906   880A      4.770189  
     881A      4.776079   882A      4.779108   883A      4.791626  
     884A      4.793470   885A      4.810414   886A      4.816152  
     887A      4.835939   888A      4.837437   889A      4.839886  
     890A      4.848323   891A      4.856642   892A      4.863922  
     893A      4.867759   894A      4.876540   895A      4.896388  
     896A      4.914659   897A      4.916376   898A      4.923410  
     899A      4.936165   900A      4.950299   901A      4.956470  
     902A      4.961286   903A      4.965370   904A      4.971940  
     905A      4.974668   906A      4.980670   907A      5.001274  
     908A      5.012167   909A      5.013052   910A      5.022993  
     911A      5.035866   912A      5.047772   913A      5.048622  
     914A      5.068706   915A      5.075271   916A      5.080279  
     917A      5.102451   918A      5.110991   919A      5.115788  
     920A      5.135436   921A      5.144254   922A      5.147496  
     923A      5.156591   924A      5.159019   925A      5.172993  
     926A      5.180085   927A      5.185802   928A      5.200696  
     929A      5.201967   930A      5.211714   931A      5.217009  
     932A      5.225517   933A      5.228700   934A      5.235536  
     935A      5.253833   936A      5.259135   937A      5.263614  
     938A      5.276122   939A      5.284098   940A      5.286334  
     941A      5.289533   942A      5.298556   943A      5.316520  
     944A      5.321564   945A      5.329224   946A      5.335019  
     947A      5.346654   948A      5.356596   949A      5.364396  
     950A      5.377628   951A      5.392520   952A      5.400225  
     953A      5.402852   954A      5.412320   955A      5.421677  
     956A      5.424682   957A      5.436961   958A      5.445016  
     959A      5.469469   960A      5.482213   961A      5.484487  
     962A      5.486511   963A      5.502350   964A      5.505470  
     965A      5.530482   966A      5.538260   967A      5.552746  
     968A      5.559185   969A      5.585744   970A      5.594839  
     971A      5.604272   972A      5.612719   973A      5.625721  
     974A      5.653886   975A      5.654993   976A      5.664555  
     977A      5.678975   978A      5.683743   979A      5.696810  
     980A      5.698492   981A      5.713114   982A      5.728973  
     983A      5.741018   984A      5.748616   985A      5.763171  
     986A      5.777399   987A      5.784888   988A      5.796298  
     989A      5.814457   990A      5.817585   991A      5.832084  
     992A      5.844243   993A      5.858776   994A      5.868345  
     995A      5.896382   996A      5.909909   997A      5.924248  
     998A      5.928631   999A      5.979767  1000A      5.995421  
    1001A      6.003656  1002A      6.038551  1003A      6.054354  
    1004A      6.068683  1005A      6.100262  1006A      6.115007  
    1007A      6.118796  1008A      6.135601  1009A      6.146980  
    1010A      6.171473  1011A      6.197994  1012A      6.209646  
    1013A      6.216389  1014A      6.223324  1015A      6.233410  
    1016A      6.243837  1017A      6.256788  1018A      6.272374  
    1019A      6.292467  1020A      6.314702  1021A      6.327678  
    1022A      6.338618  1023A      6.359392  1024A      6.375568  
    1025A      6.380639  1026A      6.405240  1027A      6.457225  
    1028A      6.460286  1029A      6.537214  1030A      6.549705  
    1031A      6.557038  1032A      6.583731  1033A      6.599481  
    1034A      6.666519  1035A      6.692592  1036A      6.702778  
    1037A      6.740531  1038A      6.752116  1039A      6.778082  
    1040A      6.813032  1041A      6.855070  1042A      6.880389  
    1043A      6.901447  1044A      6.954505  1045A      6.957369  
    1046A      6.969205  1047A      6.984692  1048A      7.012051  
    1049A      7.022370  1050A      7.035254  1051A      7.090994  
    1052A      7.108561  1053A      7.131969  1054A      7.168378  
    1055A      7.170572  1056A      7.204680  1057A      7.264559  
    1058A      7.325342  1059A      7.349829  1060A      7.578730  
    1061A      7.606998  1062A      7.705069  1063A      7.867347  
    1064A      7.895118  1065A      8.042244  1066A      8.150922  
    1067A     15.985302  1068A     16.273447  1069A     17.199346  
    1070A     17.527430  1071A     18.098843  1072A     18.558716  
    1073A     18.811025  1074A     18.967505  1075A     19.213291  
    1076A     19.603154  1077A     19.962656  1078A     20.154998  
    1079A     20.943664  1080A     21.316119  1081A     22.353864  

    Final Occupation by Irrep:
              A 
    DOCC [    55 ]

  @DF-RHF Final Energy:  -631.72887358676189

   => Energetics <=

    Nuclear Repulsion Energy =            999.9090960371560186
    One-Electron Energy =               -2842.9993031413296194
    Two-Electron Energy =                1211.3613335174118220
    Total Energy =                       -631.7288735867618925

Computation Completed

*** tstop() called on c418-134.stampede2.tacc.utexas.edu at Sat Mar  6 21:02:04 2021
Module time:
	user time   =    2550.86 seconds =      42.51 minutes
	system time =     151.46 seconds =       2.52 minutes
	total time  =        119 seconds =       1.98 minutes
Total time:
	user time   =    2550.86 seconds =      42.51 minutes
	system time =     151.46 seconds =       2.52 minutes
	total time  =        119 seconds =       1.98 minutes
   => Loading Basis Set <=

    Name: (AUG-CC-PVTZ AUX)
    Role: RIFIT
    Keyword: DF_BASIS_MP2
    atoms 1     entry O          line   264 file /home1/07844/xy3866/miniconda3/envs/p4env/share/psi4/basis/aug-cc-pvtz-ri.gbs 
    atoms 2     entry N          line   206 file /home1/07844/xy3866/miniconda3/envs/p4env/share/psi4/basis/aug-cc-pvtz-ri.gbs 
    atoms 3-15  entry C          line   148 file /home1/07844/xy3866/miniconda3/envs/p4env/share/psi4/basis/aug-cc-pvtz-ri.gbs 
    atoms 16-32 entry H          line    30 file /home1/07844/xy3866/miniconda3/envs/p4env/share/psi4/basis/aug-cc-pvtz-ri.gbs 


*** tstart() called on c418-134.stampede2.tacc.utexas.edu
*** at Sat Mar  6 21:02:06 2021


  //>>>>>>>>>>>>>>>>>>>>>>>>>>>>>>>>>>>//
  //               DFMP2               //
  //<<<<<<<<<<<<<<<<<<<<<<<<<<<<<<<<<<<//

	 --------------------------------------------------------
	                          DF-MP2                         
	      2nd-Order Density-Fitted Moller-Plesset Theory     
	              RMP2 Wavefunction,  32 Threads             
	                                                         
	        Rob Parrish, Justin Turney, Andy Simmonett,      
	           Ed Hohenstein, and C. David Sherrill          
	 --------------------------------------------------------

   => Auxiliary Basis Set <=

  Basis Set: (AUG-CC-PVTZ AUX)
    Blend: AUG-CC-PVTZ-RI
    Number of shells: 658
    Number of basis functions: 2372
    Number of Cartesian functions: 2975
    Spherical Harmonics?: true
    Max angular momentum: 4

	 --------------------------------------------------------
	                 NBF =  1081, NAUX =  2372
	 --------------------------------------------------------
	   CLASS    FOCC     OCC    AOCC    AVIR     VIR    FVIR
	   PAIRS       0      55      55    1026    1026       0
	 --------------------------------------------------------

  DFHelper Memory: AOs need 18.695 GiB; user supplied 22.352 GiB. Using in-core AOs.


         ------------------------------------------------------------
                                     CPHF                           
                                  Rob Parrish                       
         ------------------------------------------------------------

  ==> Geometry <==

    Molecular point group: c1
    Full point group: C1

    Geometry (in Angstrom), charge = 0, multiplicity = 1:

       Center              X                  Y                   Z               Mass       
    ------------   -----------------  -----------------  -----------------  -----------------
         O            0.055811036756     1.937950930778    -1.184959405758    15.994914619570
         N            1.267242636756     0.435823730778     0.100853394242    14.003074004430
         C            3.726484036756    -0.963520069222     0.431189594242    12.000000000000
         C            3.579103036756     0.156752930778    -0.599132405758    12.000000000000
         C            2.378437036756    -1.630577069222     0.707785594242    12.000000000000
         C            2.509083036756     1.155155930778    -0.167193405758    12.000000000000
         C            1.336356036756    -0.588558069222     1.104472594242    12.000000000000
         C            0.097608036756     0.916295930778    -0.485840405758    12.000000000000
         C           -1.135942963244     0.089514930778    -0.270682405758    12.000000000000
         C           -2.237512963244     0.643109930778     0.407419594242    12.000000000000
         C           -1.217396963244    -1.184206069222    -0.846637405758    12.000000000000
         C           -3.400536963244    -0.127908069222     0.511875594242    12.000000000000
         C           -2.161700963244     2.024314930778     1.004887594242    12.000000000000
         C           -2.391767963244    -1.930737069222    -0.743609405758    12.000000000000
         C           -3.485579963244    -1.400038069222    -0.058976405758    12.000000000000
         H            4.457978036756    -1.705363069222     0.091090594242     1.007825032230
         H            4.115886036756    -0.541828069222     1.368180594242     1.007825032230
         H            4.532706036756     0.679425930778    -0.741395405758     1.007825032230
         H            3.290645036756    -0.265481069222    -1.569446405758     1.007825032230
         H            2.028078036756    -2.152349069222    -0.191317405758     1.007825032230
         H            2.471628036756    -2.377733069222     1.505417594242     1.007825032230
         H            2.821757036756     1.672246930778     0.753093594242     1.007825032230
         H            2.312071036756     1.909518930778    -0.930113405758     1.007825032230
         H            0.351836036756    -1.036879069222     1.240983594242     1.007825032230
         H            1.628297036756    -0.121060069222     2.058574594242     1.007825032230
         H           -0.358293963244    -1.582582069222    -1.384108405758     1.007825032230
         H           -4.259485963244     0.280353930778     1.042013594242     1.007825032230
         H           -1.980447963244     2.768997930778     0.226107594242     1.007825032230
         H           -3.091977963244     2.270095930778     1.524148594242     1.007825032230
         H           -1.339593963244     2.101122930778     1.724637594242     1.007825032230
         H           -2.452828963244    -2.916706069222    -1.198143405758     1.007825032230
         H           -4.405042963244    -1.973801069222     0.031202594242     1.007825032230

  Nuclear repulsion =  999.909096037156019
  Reference energy  = -631.728873586761893

  ==> Basis Set <==

  Basis Set: AUG-CC-PVTZ
    Blend: AUG-CC-PVTZ
    Number of shells: 363
    Number of basis functions: 1081
    Number of Cartesian functions: 1250
    Spherical Harmonics?: true
    Max angular momentum: 3

  ==> CGRSolver (by Rob Parrish) <==

   Number of roots    =         1
   Preconditioning    =    JACOBI
   Convergence cutoff =     1E-06
   Maximum iterations =       100

  ==> CPHFRHamiltonian (by Rob Parrish) <== 

  ==> MemDFJK: Density-Fitted J/K Matrices <==

    J tasked:                   Yes
    K tasked:                   Yes
    wK tasked:                   No
    OpenMP threads:              32
    Memory [MiB]:             22888
    Algorithm:                 Core
    Schwarz Cutoff:           1E-12
    Mask sparsity (%):      11.0341
    Fitting Condition:        1E-10

   => Auxiliary Basis Set <=

  Basis Set: (AUG-CC-PVTZ AUX)
    Blend: AUG-CC-PVTZ-JKFIT
    Number of shells: 688
    Number of basis functions: 2342
    Number of Cartesian functions: 2900
    Spherical Harmonics?: true
    Max angular momentum: 4

  ==> CPHF Iterations <==

  => Iterations <=

             Iter  Converged  Remaining    Residual
  CGR           1          0          1   1.144E-01
  CGR           2          0          1   3.450E-02
  CGR           3          0          1   1.493E-02
  CGR           4          0          1   5.546E-03
  CGR           5          0          1   2.524E-03
  CGR           6          0          1   1.308E-03
  CGR           7          0          1   4.862E-04
  CGR           8          0          1   1.871E-04
  CGR           9          0          1   6.118E-05
  CGR          10          0          1   2.186E-05
  CGR          11          0          1   9.750E-06
  CGR          12          0          1   3.402E-06
  CGR          13          0          1   1.432E-06
  CGR          14          1          0   4.711E-07

    CGRSolver converged.

	-----------------------------------------------------------
	 ==================> DF-MP2 Energies <==================== 
	-----------------------------------------------------------
	 Reference Energy          =    -631.7288735867618925 [Eh]
	 Singles Energy            =      -0.0000000000000000 [Eh]
	 Same-Spin Energy          =      -0.6893525288478577 [Eh]
	 Opposite-Spin Energy      =      -2.2128078353671139 [Eh]
	 Correlation Energy        =      -2.9021603642149714 [Eh]
	 Total Energy              =    -634.6310339509768710 [Eh]
	-----------------------------------------------------------
	 ================> DF-SCS-MP2 Energies <================== 
	-----------------------------------------------------------
	 SCS Same-Spin Scale       =       0.3333333333333333 [-]
	 SCS Opposite-Spin Scale   =       1.2000000000000000 [-]
	 SCS Same-Spin Energy      =      -0.2297841762826192 [Eh]
	 SCS Opposite-Spin Energy  =      -2.6553694024405368 [Eh]
	 SCS Correlation Energy    =      -2.8851535787231559 [Eh]
	 SCS Total Energy          =    -634.6140271654850267 [Eh]
	-----------------------------------------------------------



Properties will be evaluated at   0.000000,  -0.000000,  -0.000000 [a0]

Properties computed using the MP2 density matrix

  Nuclear Dipole Moment: [e a0]
     X:     9.4868      Y:    -2.7969      Z:     5.1978

  Electronic Dipole Moment: [e a0]
     X:    -8.9797      Y:     1.8373      Z:    -4.3232

  Dipole Moment: [e a0]
     X:     0.5071      Y:    -0.9596      Z:     0.8747     Total:     1.3939

  Dipole Moment: [D]
     X:     1.2888      Y:    -2.4391      Z:     2.2232     Total:     3.5429


*** tstop() called on c418-134.stampede2.tacc.utexas.edu at Sat Mar  6 21:14:10 2021
Module time:
	user time   =    9171.85 seconds =     152.86 minutes
	system time =     191.88 seconds =       3.20 minutes
	total time  =        724 seconds =      12.07 minutes
Total time:
	user time   =   11724.33 seconds =     195.41 minutes
	system time =     343.37 seconds =       5.72 minutes
	total time  =        845 seconds =      14.08 minutes

    Psi4 stopped on: Saturday, 06 March 2021 09:14PM
    Psi4 wall time for execution: 0:14:07.92

*** Psi4 exiting successfully. Buy a developer a beer!
