
    -----------------------------------------------------------------------
          Psi4: An Open-Source Ab Initio Electronic Structure Package
                               Psi4 1.4a3.dev225 

                         Git: Rev {master} 7105e37 


    D. G. A. Smith, L. A. Burns, A. C. Simmonett, R. M. Parrish,
    M. C. Schieber, R. Galvelis, P. Kraus, H. Kruse, R. Di Remigio,
    A. Alenaizan, A. M. James, S. Lehtola, J. P. Misiewicz, M. Scheurer,
    R. A. Shaw, J. B. Schriber, Y. Xie, Z. L. Glick, D. A. Sirianni,
    J. S. O'Brien, J. M. Waldrop, A. Kumar, E. G. Hohenstein,
    B. P. Pritchard, B. R. Brooks, H. F. Schaefer III, A. Yu. Sokolov,
    K. Patkowski, A. E. DePrince III, U. Bozkaya, R. A. King,
    F. A. Evangelista, J. M. Turney, T. D. Crawford, C. D. Sherrill,
    J. Chem. Phys. 152(18) 184108 (2020). https://doi.org/10.1063/5.0006002

                            Additional Code Authors
    E. T. Seidl, C. L. Janssen, E. F. Valeev, M. L. Leininger,
    J. F. Gonthier, R. M. Richard, H. R. McAlexander, M. Saitow, X. Wang,
    P. Verma, and M. H. Lechner

             Previous Authors, Complete List of Code Contributors,
                       and Citations for Specific Modules
    https://github.com/psi4/psi4/blob/master/codemeta.json
    https://github.com/psi4/psi4/graphs/contributors
    http://psicode.org/psi4manual/master/introduction.html#citing-psifour

    -----------------------------------------------------------------------


    Psi4 started on: Friday, 02 April 2021 12:57PM

    Process ID: 236518
    Host:       c450-021.stampede2.tacc.utexas.edu
    PSIDATADIR: /home1/07844/xy3866/miniconda3/envs/p4env/share/psi4
    Memory:     500.0 MiB
    Threads:    8
    
  ==> Input File <==

--------------------------------------------------------------------------
#psi4
#
memory 32 gb

molecule  {
0 1
  O        0.0109280     1.9504830    -1.2088660
  N        1.2104930     0.4628600     0.0596820
  C        3.6816010    -0.9509880     0.4072830
  C        3.5342200     0.1692850    -0.6230390
  C        2.3335540    -1.6180450     0.6838790
  C        2.4642000     1.1676880    -0.1911000
  C        1.2914730    -0.5760260     1.0805660
  C        0.0527250     0.9288280    -0.5097470
  C       -1.1808260     0.1020470    -0.2945890
  C       -2.2823960     0.6556420     0.3835130
  C       -1.2622800    -1.1716740    -0.8705440
  C       -3.4454200    -0.1153760     0.4879690
  C       -2.2065840     2.0368470     0.9809810
  C       -2.4366510    -1.9182050    -0.7675160
  C       -3.5304630    -1.3875060    -0.0828830
  H        4.4130950    -1.6928310     0.0671840
  H        4.0710030    -0.5292960     1.3442740
  H        4.4878230     0.6919580    -0.7653020
  H        3.2457620    -0.2529490    -1.5933530
  H        1.9831950    -2.1398170    -0.2152240
  H        2.4267450    -2.3652010     1.4815110
  H        2.7768740     1.6847790     0.7291870
  H        2.2671880     1.9220510    -0.9540200
  H        0.2618069    -1.0449052     1.2233368
  H        1.5834140    -0.1085280     2.0346680
  H       -0.4031770    -1.5700500    -1.4080150
  H       -4.3043690     0.2928860     1.0181070
  H       -2.0253310     2.7815300     0.2022010
  H       -3.1368610     2.2826280     1.5002420
  H       -1.3844770     2.1136550     1.7007310
  H       -2.4977120    -2.9041740    -1.2220500
  H       -4.4499260    -1.9612690     0.0072960
units angstrom
no_reorient  #important for SAPT in psi4, default
symmetry c1  #important for SAPT in psi4, default
}

set PROPERTIES_ORIGIN ["COM"]
properties('MP2/aug-cc-pvtz', properties = ['dipole'])
--------------------------------------------------------------------------

  Memory set to  29.802 GiB by Python driver.
    SCF Algorithm Type (re)set to DF.

*** tstart() called on c450-021.stampede2.tacc.utexas.edu
*** at Fri Apr  2 12:57:13 2021

   => Loading Basis Set <=

    Name: AUG-CC-PVTZ
    Role: ORBITAL
    Keyword: BASIS
    atoms 1     entry O          line   331 file /home1/07844/xy3866/miniconda3/envs/p4env/share/psi4/basis/aug-cc-pvtz.gbs 
    atoms 2     entry N          line   285 file /home1/07844/xy3866/miniconda3/envs/p4env/share/psi4/basis/aug-cc-pvtz.gbs 
    atoms 3-15  entry C          line   239 file /home1/07844/xy3866/miniconda3/envs/p4env/share/psi4/basis/aug-cc-pvtz.gbs 
    atoms 16-32 entry H          line    40 file /home1/07844/xy3866/miniconda3/envs/p4env/share/psi4/basis/aug-cc-pvtz.gbs 


         ---------------------------------------------------------
                                   SCF
               by Justin Turney, Rob Parrish, Andy Simmonett
                          and Daniel G. A. Smith
                              RHF Reference
                        8 Threads,  30517 MiB Core
         ---------------------------------------------------------

  ==> Geometry <==

    Molecular point group: c1
    Full point group: C1

    Geometry (in Angstrom), charge = 0, multiplicity = 1:

       Center              X                  Y                   Z               Mass       
    ------------   -----------------  -----------------  -----------------  -----------------
         O            0.056853064969     1.937053065338    -1.183800294285    15.994914619570
         N            1.256418064969     0.449430065338     0.084747705715    14.003074004430
         C            3.727526064969    -0.964417934662     0.432348705715    12.000000000000
         C            3.580145064969     0.155855065338    -0.597973294285    12.000000000000
         C            2.379479064969    -1.631474934662     0.708944705715    12.000000000000
         C            2.510125064969     1.154258065338    -0.166034294285    12.000000000000
         C            1.337398064969    -0.589455934662     1.105631705715    12.000000000000
         C            0.098650064969     0.915398065338    -0.484681294285    12.000000000000
         C           -1.134900935031     0.088617065338    -0.269523294285    12.000000000000
         C           -2.236470935031     0.642212065338     0.408578705715    12.000000000000
         C           -1.216354935031    -1.185103934662    -0.845478294285    12.000000000000
         C           -3.399494935031    -0.128805934662     0.513034705715    12.000000000000
         C           -2.160658935031     2.023417065338     1.006046705715    12.000000000000
         C           -2.390725935031    -1.931634934662    -0.742450294285    12.000000000000
         C           -3.484537935031    -1.400935934662    -0.057817294285    12.000000000000
         H            4.459020064969    -1.706260934662     0.092249705715     1.007825032230
         H            4.116928064969    -0.542725934662     1.369339705715     1.007825032230
         H            4.533748064969     0.678528065338    -0.740236294285     1.007825032230
         H            3.291687064969    -0.266378934662    -1.568287294285     1.007825032230
         H            2.029120064969    -2.153246934662    -0.190158294285     1.007825032230
         H            2.472670064969    -2.378630934662     1.506576705715     1.007825032230
         H            2.822799064969     1.671349065338     0.754252705715     1.007825032230
         H            2.313113064969     1.908621065338    -0.928954294285     1.007825032230
         H            0.307731964969    -1.058335134662     1.248402505715     1.007825032230
         H            1.629339064969    -0.121957934662     2.059733705715     1.007825032230
         H           -0.357251935031    -1.583479934662    -1.382949294285     1.007825032230
         H           -4.258443935031     0.279456065338     1.043172705715     1.007825032230
         H           -1.979405935031     2.768100065338     0.227266705715     1.007825032230
         H           -3.090935935031     2.269198065338     1.525307705715     1.007825032230
         H           -1.338551935031     2.100225065338     1.725796705715     1.007825032230
         H           -2.451786935031    -2.917603934662    -1.196984294285     1.007825032230
         H           -4.404000935031    -1.974698934662     0.032361705715     1.007825032230

  Running in c1 symmetry.

  Rotational constants: A =      0.03824  B =      0.01322  C =      0.01127 [cm^-1]
  Rotational constants: A =   1146.37173  B =    396.28940  C =    337.99479 [MHz]
  Nuclear repulsion =  999.780418158212569

  Charge       = 0
  Multiplicity = 1
  Electrons    = 110
  Nalpha       = 55
  Nbeta        = 55

  ==> Algorithm <==

  SCF Algorithm Type is DF.
  DIIS enabled.
  MOM disabled.
  Fractional occupation disabled.
  Guess Type is SAD.
  Energy threshold   = 1.00e-10
  Density threshold  = 1.00e-10
  Integral threshold = 1.00e-12

  ==> Primary Basis <==

  Basis Set: AUG-CC-PVTZ
    Blend: AUG-CC-PVTZ
    Number of shells: 363
    Number of basis functions: 1081
    Number of Cartesian functions: 1250
    Spherical Harmonics?: true
    Max angular momentum: 3

   => Loading Basis Set <=

    Name: (AUG-CC-PVTZ AUX)
    Role: JKFIT
    Keyword: DF_BASIS_SCF
    atoms 1     entry O          line   286 file /home1/07844/xy3866/miniconda3/envs/p4env/share/psi4/basis/aug-cc-pvtz-jkfit.gbs 
    atoms 2     entry N          line   224 file /home1/07844/xy3866/miniconda3/envs/p4env/share/psi4/basis/aug-cc-pvtz-jkfit.gbs 
    atoms 3-15  entry C          line   162 file /home1/07844/xy3866/miniconda3/envs/p4env/share/psi4/basis/aug-cc-pvtz-jkfit.gbs 
    atoms 16-32 entry H          line    70 file /home1/07844/xy3866/miniconda3/envs/p4env/share/psi4/basis/aug-cc-pvtz-jkfit.gbs 

  ==> Integral Setup <==

  DFHelper Memory: AOs need 17.237 GiB; user supplied 22.352 GiB. Using in-core AOs.

  ==> MemDFJK: Density-Fitted J/K Matrices <==

    J tasked:                   Yes
    K tasked:                   Yes
    wK tasked:                   No
    OpenMP threads:               8
    Memory [MiB]:             22888
    Algorithm:                 Core
    Schwarz Cutoff:           1E-12
    Mask sparsity (%):      17.1599
    Fitting Condition:        1E-10

   => Auxiliary Basis Set <=

  Basis Set: (AUG-CC-PVTZ AUX)
    Blend: AUG-CC-PVTZ-JKFIT
    Number of shells: 688
    Number of basis functions: 2342
    Number of Cartesian functions: 2900
    Spherical Harmonics?: true
    Max angular momentum: 4

  Minimum eigenvalue in the overlap matrix is 3.5752656121E-07.
  Reciprocal condition number of the overlap matrix is 1.4199310824E-08.
    Using symmetric orthogonalization.

  ==> Pre-Iterations <==

  SCF Guess: Superposition of Atomic Densities via on-the-fly atomic UHF (no occupation information).

   -------------------------
    Irrep   Nso     Nmo    
   -------------------------
     A       1081    1081 
   -------------------------
    Total    1081    1081
   -------------------------

  ==> Iterations <==

                           Total Energy        Delta E     RMS |[F,P]|

   @DF-RHF iter SAD:  -631.62622205230332   -6.31626e+02   0.00000e+00 
   @DF-RHF iter   1:  -631.23840275174666    3.87819e-01   8.38830e-04 DIIS
   @DF-RHF iter   2:  -631.62271531364763   -3.84313e-01   4.39613e-04 DIIS
   @DF-RHF iter   3:  -631.72037842543875   -9.76631e-02   9.52284e-05 DIIS
   @DF-RHF iter   4:  -631.72709680025196   -6.71837e-03   3.86171e-05 DIIS
   @DF-RHF iter   5:  -631.72803719250248   -9.40392e-04   9.96769e-06 DIIS
   @DF-RHF iter   6:  -631.72812564626122   -8.84538e-05   4.05132e-06 DIIS
   @DF-RHF iter   7:  -631.72814302476831   -1.73785e-05   1.30631e-06 DIIS
   @DF-RHF iter   8:  -631.72814666088743   -3.63612e-06   6.57207e-07 DIIS
   @DF-RHF iter   9:  -631.72814743516108   -7.74274e-07   2.19331e-07 DIIS
   @DF-RHF iter  10:  -631.72814752012914   -8.49681e-08   7.07694e-08 DIIS
   @DF-RHF iter  11:  -631.72814752757506   -7.44592e-09   2.58063e-08 DIIS
   @DF-RHF iter  12:  -631.72814752827321   -6.98151e-10   1.20249e-08 DIIS
   @DF-RHF iter  13:  -631.72814752846853   -1.95314e-10   3.61607e-09 DIIS
   @DF-RHF iter  14:  -631.72814752850104   -3.25144e-11   1.70400e-09 DIIS
   @DF-RHF iter  15:  -631.72814752850934   -8.29914e-12   8.70484e-10 DIIS
   @DF-RHF iter  16:  -631.72814752850741    1.93268e-12   3.85665e-10 DIIS
   @DF-RHF iter  17:  -631.72814752851014   -2.72848e-12   1.69922e-10 DIIS
   @DF-RHF iter  18:  -631.72814752851195   -1.81899e-12   5.31853e-11 DIIS
  Energy and wave function converged.


  ==> Post-Iterations <==

    Orbital Energies [Eh]
    ---------------------

    Doubly Occupied:                                                      

       1A    -20.510921     2A    -15.584295     3A    -11.349563  
       4A    -11.272351     5A    -11.255007     6A    -11.251709  
       7A    -11.246219     8A    -11.244943     9A    -11.242548  
      10A    -11.239069    11A    -11.236920    12A    -11.230884  
      13A    -11.228559    14A    -11.225888    15A    -11.220267  
      16A     -1.367116    17A     -1.249533    18A     -1.161373  
      19A     -1.083799    20A     -1.050710    21A     -1.036562  
      22A     -1.022407    23A     -0.943014    24A     -0.918215  
      25A     -0.865620    26A     -0.844115    27A     -0.815257  
      28A     -0.791076    29A     -0.741537    30A     -0.711005  
      31A     -0.666119    32A     -0.652732    33A     -0.648375  
      34A     -0.626559    35A     -0.619188    36A     -0.615448  
      37A     -0.596089    38A     -0.587814    39A     -0.575590  
      40A     -0.571794    41A     -0.559120    42A     -0.546068  
      43A     -0.541530    44A     -0.524929    45A     -0.508074  
      46A     -0.502155    47A     -0.491330    48A     -0.489044  
      49A     -0.478675    50A     -0.468611    51A     -0.460570  
      52A     -0.416997    53A     -0.366470    54A     -0.339540  
      55A     -0.329878  

    Virtual:                                                              

      56A      0.024587    57A      0.028937    58A      0.030241  
      59A      0.034810    60A      0.039854    61A      0.040187  
      62A      0.049284    63A      0.051866    64A      0.054155  
      65A      0.055327    66A      0.058506    67A      0.068830  
      68A      0.070538    69A      0.072859    70A      0.077625  
      71A      0.078887    72A      0.087348    73A      0.095546  
      74A      0.099875    75A      0.102836    76A      0.108316  
      77A      0.109798    78A      0.111467    79A      0.112547  
      80A      0.116278    81A      0.119212    82A      0.121314  
      83A      0.123643    84A      0.124702    85A      0.126942  
      86A      0.130135    87A      0.131781    88A      0.135545  
      89A      0.139772    90A      0.140287    91A      0.143184  
      92A      0.147967    93A      0.150524    94A      0.152326  
      95A      0.154079    96A      0.156956    97A      0.158734  
      98A      0.166404    99A      0.168016   100A      0.170956  
     101A      0.172099   102A      0.175208   103A      0.183216  
     104A      0.183905   105A      0.187602   106A      0.190839  
     107A      0.193560   108A      0.194103   109A      0.198936  
     110A      0.202789   111A      0.208152   112A      0.210355  
     113A      0.216773   114A      0.222730   115A      0.225904  
     116A      0.228987   117A      0.233498   118A      0.242351  
     119A      0.243272   120A      0.244786   121A      0.250134  
     122A      0.253098   123A      0.258126   124A      0.262628  
     125A      0.269024   126A      0.270827   127A      0.273044  
     128A      0.276505   129A      0.285524   130A      0.286301  
     131A      0.289973   132A      0.291236   133A      0.298062  
     134A      0.299392   135A      0.306824   136A      0.307653  
     137A      0.311697   138A      0.312955   139A      0.316416  
     140A      0.321076   141A      0.322140   142A      0.326498  
     143A      0.330521   144A      0.331719   145A      0.334891  
     146A      0.337357   147A      0.340475   148A      0.342394  
     149A      0.345263   150A      0.346879   151A      0.351088  
     152A      0.352776   153A      0.354681   154A      0.358865  
     155A      0.362686   156A      0.366944   157A      0.371572  
     158A      0.372837   159A      0.375410   160A      0.381552  
     161A      0.384030   162A      0.385971   163A      0.393037  
     164A      0.397268   165A      0.399860   166A      0.403077  
     167A      0.406773   168A      0.411698   169A      0.413505  
     170A      0.415710   171A      0.418025   172A      0.422064  
     173A      0.424417   174A      0.429742   175A      0.432285  
     176A      0.433396   177A      0.438163   178A      0.439069  
     179A      0.440948   180A      0.447524   181A      0.451272  
     182A      0.454013   183A      0.456179   184A      0.458822  
     185A      0.462064   186A      0.468030   187A      0.473616  
     188A      0.475163   189A      0.476752   190A      0.480542  
     191A      0.482179   192A      0.488497   193A      0.490508  
     194A      0.492226   195A      0.493765   196A      0.498480  
     197A      0.500050   198A      0.505059   199A      0.506589  
     200A      0.508037   201A      0.512686   202A      0.513393  
     203A      0.514776   204A      0.518269   205A      0.521101  
     206A      0.524188   207A      0.526389   208A      0.528088  
     209A      0.530162   210A      0.534432   211A      0.535444  
     212A      0.543783   213A      0.545769   214A      0.547958  
     215A      0.549245   216A      0.554356   217A      0.555130  
     218A      0.562381   219A      0.563732   220A      0.565407  
     221A      0.566192   222A      0.571209   223A      0.574814  
     224A      0.579713   225A      0.582775   226A      0.584817  
     227A      0.589696   228A      0.591224   229A      0.597957  
     230A      0.600724   231A      0.602816   232A      0.607769  
     233A      0.609084   234A      0.615422   235A      0.615922  
     236A      0.620627   237A      0.623563   238A      0.626118  
     239A      0.633144   240A      0.637646   241A      0.640576  
     242A      0.645530   243A      0.649808   244A      0.657774  
     245A      0.660968   246A      0.663781   247A      0.664480  
     248A      0.670126   249A      0.676148   250A      0.679066  
     251A      0.683816   252A      0.689292   253A      0.693324  
     254A      0.695913   255A      0.699175   256A      0.700317  
     257A      0.706945   258A      0.711075   259A      0.713487  
     260A      0.714261   261A      0.724401   262A      0.728555  
     263A      0.729207   264A      0.734809   265A      0.738279  
     266A      0.739766   267A      0.747516   268A      0.750838  
     269A      0.754975   270A      0.758935   271A      0.766005  
     272A      0.770141   273A      0.775880   274A      0.778766  
     275A      0.782778   276A      0.786477   277A      0.797152  
     278A      0.801175   279A      0.804114   280A      0.807660  
     281A      0.810266   282A      0.818284   283A      0.825846  
     284A      0.828474   285A      0.832366   286A      0.836506  
     287A      0.842628   288A      0.847661   289A      0.849626  
     290A      0.859553   291A      0.862288   292A      0.866199  
     293A      0.867468   294A      0.870307   295A      0.872149  
     296A      0.875862   297A      0.882845   298A      0.888067  
     299A      0.894487   300A      0.897860   301A      0.899541  
     302A      0.900769   303A      0.906218   304A      0.909784  
     305A      0.914218   306A      0.915885   307A      0.922840  
     308A      0.926812   309A      0.930963   310A      0.934155  
     311A      0.940828   312A      0.944244   313A      0.946022  
     314A      0.951478   315A      0.953022   316A      0.957287  
     317A      0.961612   318A      0.965025   319A      0.968434  
     320A      0.970302   321A      0.972480   322A      0.976847  
     323A      0.982044   324A      0.985650   325A      0.992422  
     326A      0.995534   327A      0.997708   328A      1.004535  
     329A      1.010270   330A      1.014731   331A      1.015872  
     332A      1.020041   333A      1.030569   334A      1.032111  
     335A      1.038254   336A      1.040044   337A      1.042405  
     338A      1.044860   339A      1.048613   340A      1.054742  
     341A      1.055311   342A      1.058413   343A      1.062641  
     344A      1.067386   345A      1.073758   346A      1.075993  
     347A      1.080750   348A      1.082795   349A      1.088015  
     350A      1.091683   351A      1.095274   352A      1.096564  
     353A      1.101952   354A      1.104097   355A      1.105880  
     356A      1.113271   357A      1.114715   358A      1.116923  
     359A      1.123565   360A      1.124785   361A      1.126521  
     362A      1.131628   363A      1.137535   364A      1.139813  
     365A      1.144806   366A      1.146017   367A      1.149260  
     368A      1.150564   369A      1.156688   370A      1.161266  
     371A      1.165455   372A      1.166834   373A      1.168145  
     374A      1.177468   375A      1.181794   376A      1.189326  
     377A      1.193650   378A      1.200017   379A      1.204484  
     380A      1.205411   381A      1.209582   382A      1.213909  
     383A      1.219737   384A      1.222170   385A      1.226922  
     386A      1.233546   387A      1.236324   388A      1.236819  
     389A      1.240809   390A      1.244798   391A      1.250824  
     392A      1.254812   393A      1.257215   394A      1.263779  
     395A      1.266511   396A      1.268914   397A      1.274067  
     398A      1.280284   399A      1.282451   400A      1.287589  
     401A      1.294625   402A      1.297740   403A      1.299197  
     404A      1.309641   405A      1.312767   406A      1.317667  
     407A      1.324143   408A      1.333239   409A      1.336061  
     410A      1.339973   411A      1.342944   412A      1.346164  
     413A      1.353708   414A      1.357863   415A      1.363222  
     416A      1.365656   417A      1.369371   418A      1.376507  
     419A      1.385568   420A      1.388920   421A      1.390485  
     422A      1.396636   423A      1.400178   424A      1.406772  
     425A      1.410503   426A      1.413835   427A      1.423800  
     428A      1.429237   429A      1.431220   430A      1.436097  
     431A      1.440611   432A      1.445709   433A      1.453964  
     434A      1.456427   435A      1.461056   436A      1.465000  
     437A      1.474020   438A      1.477475   439A      1.487274  
     440A      1.490801   441A      1.494503   442A      1.498365  
     443A      1.500344   444A      1.504712   445A      1.511317  
     446A      1.517273   447A      1.519254   448A      1.521945  
     449A      1.530937   450A      1.541782   451A      1.544814  
     452A      1.548967   453A      1.554257   454A      1.557257  
     455A      1.563248   456A      1.566731   457A      1.574027  
     458A      1.584029   459A      1.584913   460A      1.587932  
     461A      1.591015   462A      1.596878   463A      1.600115  
     464A      1.607805   465A      1.614696   466A      1.616893  
     467A      1.619174   468A      1.624019   469A      1.628473  
     470A      1.637755   471A      1.642924   472A      1.648460  
     473A      1.652845   474A      1.659968   475A      1.662398  
     476A      1.667158   477A      1.675555   478A      1.678236  
     479A      1.682221   480A      1.690106   481A      1.693788  
     482A      1.695861   483A      1.703811   484A      1.704976  
     485A      1.713611   486A      1.721035   487A      1.725933  
     488A      1.730746   489A      1.737092   490A      1.747167  
     491A      1.750419   492A      1.752468   493A      1.761014  
     494A      1.768496   495A      1.776653   496A      1.777584  
     497A      1.782195   498A      1.783159   499A      1.788644  
     500A      1.792688   501A      1.802517   502A      1.803085  
     503A      1.811631   504A      1.813976   505A      1.818777  
     506A      1.827747   507A      1.831421   508A      1.832420  
     509A      1.835716   510A      1.846661   511A      1.851712  
     512A      1.856166   513A      1.861711   514A      1.862629  
     515A      1.865347   516A      1.877544   517A      1.878961  
     518A      1.884934   519A      1.887578   520A      1.888422  
     521A      1.894561   522A      1.897895   523A      1.901370  
     524A      1.903761   525A      1.914105   526A      1.921572  
     527A      1.934278   528A      1.937819   529A      1.943695  
     530A      1.947567   531A      1.948996   532A      1.954245  
     533A      1.965688   534A      1.973114   535A      1.979710  
     536A      1.981950   537A      1.988406   538A      1.990200  
     539A      1.992142   540A      1.994827   541A      2.001112  
     542A      2.002749   543A      2.009142   544A      2.015099  
     545A      2.027404   546A      2.029614   547A      2.032061  
     548A      2.039685   549A      2.045630   550A      2.050396  
     551A      2.058336   552A      2.061944   553A      2.066914  
     554A      2.072359   555A      2.073284   556A      2.082203  
     557A      2.090177   558A      2.092826   559A      2.098384  
     560A      2.101615   561A      2.107155   562A      2.115257  
     563A      2.126833   564A      2.130010   565A      2.136971  
     566A      2.139460   567A      2.144335   568A      2.147274  
     569A      2.151085   570A      2.158231   571A      2.160150  
     572A      2.173606   573A      2.178125   574A      2.187146  
     575A      2.194626   576A      2.198529   577A      2.212047  
     578A      2.212498   579A      2.217431   580A      2.222240  
     581A      2.233007   582A      2.239768   583A      2.249934  
     584A      2.252979   585A      2.257612   586A      2.268223  
     587A      2.282970   588A      2.283888   589A      2.290170  
     590A      2.293917   591A      2.300191   592A      2.310755  
     593A      2.313263   594A      2.325146   595A      2.326787  
     596A      2.329257   597A      2.339399   598A      2.344372  
     599A      2.347209   600A      2.355829   601A      2.361715  
     602A      2.369066   603A      2.373893   604A      2.378007  
     605A      2.389639   606A      2.398778   607A      2.405827  
     608A      2.416704   609A      2.422869   610A      2.425425  
     611A      2.439182   612A      2.443357   613A      2.447170  
     614A      2.455637   615A      2.468990   616A      2.476794  
     617A      2.489649   618A      2.494446   619A      2.497058  
     620A      2.503138   621A      2.510964   622A      2.520587  
     623A      2.532287   624A      2.540038   625A      2.546835  
     626A      2.550426   627A      2.564541   628A      2.576749  
     629A      2.585970   630A      2.589672   631A      2.601699  
     632A      2.609253   633A      2.623143   634A      2.625640  
     635A      2.640676   636A      2.650574   637A      2.655586  
     638A      2.660122   639A      2.667758   640A      2.678579  
     641A      2.689274   642A      2.695411   643A      2.701780  
     644A      2.708577   645A      2.715856   646A      2.728773  
     647A      2.733061   648A      2.739560   649A      2.762296  
     650A      2.773566   651A      2.784182   652A      2.800800  
     653A      2.801110   654A      2.817113   655A      2.818808  
     656A      2.826536   657A      2.839586   658A      2.859321  
     659A      2.864904   660A      2.875175   661A      2.880646  
     662A      2.889896   663A      2.901353   664A      2.952037  
     665A      2.958873   666A      2.968702   667A      2.981358  
     668A      2.999134   669A      3.003677   670A      3.023146  
     671A      3.046207   672A      3.066235   673A      3.110725  
     674A      3.132797   675A      3.152838   676A      3.163398  
     677A      3.182693   678A      3.193355   679A      3.208880  
     680A      3.220821   681A      3.237204   682A      3.257045  
     683A      3.274118   684A      3.284988   685A      3.298623  
     686A      3.309410   687A      3.331132   688A      3.349010  
     689A      3.365914   690A      3.377148   691A      3.394239  
     692A      3.403501   693A      3.414357   694A      3.420910  
     695A      3.424732   696A      3.441212   697A      3.456294  
     698A      3.471248   699A      3.483480   700A      3.484766  
     701A      3.496991   702A      3.510312   703A      3.515570  
     704A      3.525246   705A      3.526899   706A      3.538746  
     707A      3.542133   708A      3.547305   709A      3.560156  
     710A      3.561996   711A      3.575150   712A      3.577962  
     713A      3.583931   714A      3.596322   715A      3.608650  
     716A      3.611288   717A      3.618397   718A      3.624341  
     719A      3.629888   720A      3.638374   721A      3.644964  
     722A      3.648474   723A      3.659044   724A      3.669334  
     725A      3.675170   726A      3.685472   727A      3.693360  
     728A      3.698004   729A      3.702028   730A      3.707150  
     731A      3.713195   732A      3.719351   733A      3.733919  
     734A      3.742664   735A      3.747530   736A      3.753244  
     737A      3.766864   738A      3.769960   739A      3.776115  
     740A      3.783036   741A      3.785774   742A      3.797272  
     743A      3.804235   744A      3.815997   745A      3.821125  
     746A      3.829692   747A      3.834978   748A      3.836876  
     749A      3.842849   750A      3.852920   751A      3.854129  
     752A      3.863671   753A      3.873836   754A      3.876679  
     755A      3.881576   756A      3.895263   757A      3.899560  
     758A      3.900509   759A      3.909930   760A      3.913281  
     761A      3.916943   762A      3.923967   763A      3.933373  
     764A      3.933975   765A      3.946848   766A      3.953130  
     767A      3.960056   768A      3.963010   769A      3.965323  
     770A      3.979657   771A      3.980794   772A      3.985036  
     773A      3.991657   774A      3.997629   775A      4.002559  
     776A      4.012965   777A      4.017037   778A      4.018599  
     779A      4.027511   780A      4.029527   781A      4.039087  
     782A      4.042217   783A      4.051467   784A      4.057065  
     785A      4.059386   786A      4.065888   787A      4.069902  
     788A      4.074357   789A      4.079862   790A      4.083647  
     791A      4.096321   792A      4.096487   793A      4.105400  
     794A      4.114530   795A      4.124092   796A      4.129235  
     797A      4.134781   798A      4.141890   799A      4.155379  
     800A      4.165271   801A      4.171103   802A      4.179324  
     803A      4.185247   804A      4.188615   805A      4.198093  
     806A      4.204289   807A      4.206400   808A      4.217071  
     809A      4.222859   810A      4.230476   811A      4.233335  
     812A      4.239392   813A      4.250997   814A      4.256912  
     815A      4.259464   816A      4.264012   817A      4.274418  
     818A      4.283806   819A      4.286734   820A      4.293326  
     821A      4.300047   822A      4.307525   823A      4.317794  
     824A      4.327015   825A      4.329357   826A      4.339993  
     827A      4.345923   828A      4.352599   829A      4.357825  
     830A      4.368225   831A      4.375991   832A      4.379293  
     833A      4.386601   834A      4.390397   835A      4.392723  
     836A      4.405963   837A      4.409559   838A      4.417347  
     839A      4.420362   840A      4.428388   841A      4.438006  
     842A      4.441017   843A      4.447611   844A      4.459243  
     845A      4.464855   846A      4.469903   847A      4.479930  
     848A      4.486844   849A      4.490785   850A      4.503258  
     851A      4.517822   852A      4.520467   853A      4.532355  
     854A      4.540053   855A      4.548332   856A      4.551227  
     857A      4.560384   858A      4.570007   859A      4.581329  
     860A      4.585064   861A      4.599436   862A      4.611820  
     863A      4.618331   864A      4.629945   865A      4.634564  
     866A      4.652290   867A      4.653786   868A      4.677579  
     869A      4.685497   870A      4.690406   871A      4.697176  
     872A      4.706577   873A      4.711884   874A      4.716665  
     875A      4.723253   876A      4.735057   877A      4.739878  
     878A      4.746873   879A      4.761676   880A      4.767362  
     881A      4.776215   882A      4.777773   883A      4.787976  
     884A      4.792148   885A      4.810140   886A      4.814728  
     887A      4.834798   888A      4.836448   889A      4.838364  
     890A      4.846319   891A      4.851653   892A      4.858157  
     893A      4.865579   894A      4.874265   895A      4.890844  
     896A      4.910705   897A      4.912380   898A      4.920831  
     899A      4.935019   900A      4.947632   901A      4.949440  
     902A      4.960687   903A      4.964265   904A      4.967007  
     905A      4.973696   906A      4.979733   907A      4.994730  
     908A      5.008505   909A      5.012384   910A      5.019219  
     911A      5.034691   912A      5.046116   913A      5.046912  
     914A      5.064441   915A      5.070580   916A      5.079088  
     917A      5.098762   918A      5.108092   919A      5.110992  
     920A      5.133381   921A      5.138865   922A      5.145205  
     923A      5.150830   924A      5.156117   925A      5.169051  
     926A      5.176938   927A      5.184055   928A      5.196656  
     929A      5.199520   930A      5.205966   931A      5.215753  
     932A      5.224656   933A      5.229047   934A      5.236968  
     935A      5.252472   936A      5.256459   937A      5.260207  
     938A      5.272644   939A      5.279356   940A      5.280984  
     941A      5.285300   942A      5.295062   943A      5.314022  
     944A      5.321363   945A      5.325314   946A      5.330402  
     947A      5.343788   948A      5.355981   949A      5.361151  
     950A      5.375974   951A      5.389312   952A      5.393567  
     953A      5.398881   954A      5.407936   955A      5.414172  
     956A      5.421292   957A      5.432285   958A      5.437669  
     959A      5.460612   960A      5.466860   961A      5.481883  
     962A      5.485106   963A      5.492437   964A      5.500199  
     965A      5.525077   966A      5.534062   967A      5.547969  
     968A      5.553187   969A      5.581972   970A      5.594552  
     971A      5.596347   972A      5.605970   973A      5.622334  
     974A      5.642823   975A      5.649342   976A      5.654581  
     977A      5.661578   978A      5.680397   979A      5.685872  
     980A      5.696429   981A      5.705224   982A      5.721966  
     983A      5.737917   984A      5.741915   985A      5.753867  
     986A      5.764505   987A      5.781275   988A      5.792562  
     989A      5.805998   990A      5.811888   991A      5.824573  
     992A      5.837058   993A      5.853307   994A      5.864294  
     995A      5.893573   996A      5.903990   997A      5.918072  
     998A      5.922227   999A      5.968651  1000A      5.976597  
    1001A      5.991228  1002A      6.017490  1003A      6.040589  
    1004A      6.068288  1005A      6.090923  1006A      6.111156  
    1007A      6.113898  1008A      6.139265  1009A      6.142479  
    1010A      6.164711  1011A      6.189250  1012A      6.204985  
    1013A      6.213290  1014A      6.220007  1015A      6.228769  
    1016A      6.240852  1017A      6.256081  1018A      6.260565  
    1019A      6.283736  1020A      6.313534  1021A      6.325462  
    1022A      6.332236  1023A      6.358269  1024A      6.367117  
    1025A      6.376834  1026A      6.400821  1027A      6.432803  
    1028A      6.457258  1029A      6.536640  1030A      6.547621  
    1031A      6.554311  1032A      6.572248  1033A      6.592633  
    1034A      6.668060  1035A      6.689621  1036A      6.702573  
    1037A      6.741379  1038A      6.751540  1039A      6.764614  
    1040A      6.813307  1041A      6.856946  1042A      6.882789  
    1043A      6.904578  1044A      6.949908  1045A      6.954150  
    1046A      6.968981  1047A      6.982496  1048A      6.997250  
    1049A      7.025640  1050A      7.035619  1051A      7.095396  
    1052A      7.097080  1053A      7.131152  1054A      7.153987  
    1055A      7.165295  1056A      7.207816  1057A      7.268056  
    1058A      7.328677  1059A      7.354660  1060A      7.581283  
    1061A      7.612122  1062A      7.715817  1063A      7.871493  
    1064A      7.899582  1065A      8.048247  1066A      8.155446  
    1067A     16.000215  1068A     16.272463  1069A     17.158615  
    1070A     17.545852  1071A     18.073144  1072A     18.435801  
    1073A     18.775750  1074A     18.937434  1075A     19.066382  
    1076A     19.604521  1077A     19.900223  1078A     20.151896  
    1079A     20.896164  1080A     21.318778  1081A     22.425619  

    Final Occupation by Irrep:
              A 
    DOCC [    55 ]

  @DF-RHF Final Energy:  -631.72814752851195

   => Energetics <=

    Nuclear Repulsion Energy =            999.7804181582125693
    One-Electron Energy =               -2842.7707763188395802
    Two-Electron Energy =                1211.2622106321150568
    Total Energy =                       -631.7281475285119541

Computation Completed

*** tstop() called on c450-021.stampede2.tacc.utexas.edu at Fri Apr  2 13:01:28 2021
Module time:
	user time   =    1765.67 seconds =      29.43 minutes
	system time =      42.61 seconds =       0.71 minutes
	total time  =        255 seconds =       4.25 minutes
Total time:
	user time   =    1765.67 seconds =      29.43 minutes
	system time =      42.61 seconds =       0.71 minutes
	total time  =        255 seconds =       4.25 minutes
   => Loading Basis Set <=

    Name: (AUG-CC-PVTZ AUX)
    Role: RIFIT
    Keyword: DF_BASIS_MP2
    atoms 1     entry O          line   264 file /home1/07844/xy3866/miniconda3/envs/p4env/share/psi4/basis/aug-cc-pvtz-ri.gbs 
    atoms 2     entry N          line   206 file /home1/07844/xy3866/miniconda3/envs/p4env/share/psi4/basis/aug-cc-pvtz-ri.gbs 
    atoms 3-15  entry C          line   148 file /home1/07844/xy3866/miniconda3/envs/p4env/share/psi4/basis/aug-cc-pvtz-ri.gbs 
    atoms 16-32 entry H          line    30 file /home1/07844/xy3866/miniconda3/envs/p4env/share/psi4/basis/aug-cc-pvtz-ri.gbs 


*** tstart() called on c450-021.stampede2.tacc.utexas.edu
*** at Fri Apr  2 13:01:30 2021


  //>>>>>>>>>>>>>>>>>>>>>>>>>>>>>>>>>>>//
  //               DFMP2               //
  //<<<<<<<<<<<<<<<<<<<<<<<<<<<<<<<<<<<//

	 --------------------------------------------------------
	                          DF-MP2                         
	      2nd-Order Density-Fitted Moller-Plesset Theory     
	              RMP2 Wavefunction,   8 Threads             
	                                                         
	        Rob Parrish, Justin Turney, Andy Simmonett,      
	           Ed Hohenstein, and C. David Sherrill          
	 --------------------------------------------------------

   => Auxiliary Basis Set <=

  Basis Set: (AUG-CC-PVTZ AUX)
    Blend: AUG-CC-PVTZ-RI
    Number of shells: 658
    Number of basis functions: 2372
    Number of Cartesian functions: 2975
    Spherical Harmonics?: true
    Max angular momentum: 4

	 --------------------------------------------------------
	                 NBF =  1081, NAUX =  2372
	 --------------------------------------------------------
	   CLASS    FOCC     OCC    AOCC    AVIR     VIR    FVIR
	   PAIRS       0      55      55    1026    1026       0
	 --------------------------------------------------------

  DFHelper Memory: AOs need 18.486 GiB; user supplied 22.352 GiB. Using in-core AOs.


         ------------------------------------------------------------
                                     CPHF                           
                                  Rob Parrish                       
         ------------------------------------------------------------

  ==> Geometry <==

    Molecular point group: c1
    Full point group: C1

    Geometry (in Angstrom), charge = 0, multiplicity = 1:

       Center              X                  Y                   Z               Mass       
    ------------   -----------------  -----------------  -----------------  -----------------
         O            0.056853064969     1.937053065338    -1.183800294285    15.994914619570
         N            1.256418064969     0.449430065338     0.084747705715    14.003074004430
         C            3.727526064969    -0.964417934662     0.432348705715    12.000000000000
         C            3.580145064969     0.155855065338    -0.597973294285    12.000000000000
         C            2.379479064969    -1.631474934662     0.708944705715    12.000000000000
         C            2.510125064969     1.154258065338    -0.166034294285    12.000000000000
         C            1.337398064969    -0.589455934662     1.105631705715    12.000000000000
         C            0.098650064969     0.915398065338    -0.484681294285    12.000000000000
         C           -1.134900935031     0.088617065338    -0.269523294285    12.000000000000
         C           -2.236470935031     0.642212065338     0.408578705715    12.000000000000
         C           -1.216354935031    -1.185103934662    -0.845478294285    12.000000000000
         C           -3.399494935031    -0.128805934662     0.513034705715    12.000000000000
         C           -2.160658935031     2.023417065338     1.006046705715    12.000000000000
         C           -2.390725935031    -1.931634934662    -0.742450294285    12.000000000000
         C           -3.484537935031    -1.400935934662    -0.057817294285    12.000000000000
         H            4.459020064969    -1.706260934662     0.092249705715     1.007825032230
         H            4.116928064969    -0.542725934662     1.369339705715     1.007825032230
         H            4.533748064969     0.678528065338    -0.740236294285     1.007825032230
         H            3.291687064969    -0.266378934662    -1.568287294285     1.007825032230
         H            2.029120064969    -2.153246934662    -0.190158294285     1.007825032230
         H            2.472670064969    -2.378630934662     1.506576705715     1.007825032230
         H            2.822799064969     1.671349065338     0.754252705715     1.007825032230
         H            2.313113064969     1.908621065338    -0.928954294285     1.007825032230
         H            0.307731964969    -1.058335134662     1.248402505715     1.007825032230
         H            1.629339064969    -0.121957934662     2.059733705715     1.007825032230
         H           -0.357251935031    -1.583479934662    -1.382949294285     1.007825032230
         H           -4.258443935031     0.279456065338     1.043172705715     1.007825032230
         H           -1.979405935031     2.768100065338     0.227266705715     1.007825032230
         H           -3.090935935031     2.269198065338     1.525307705715     1.007825032230
         H           -1.338551935031     2.100225065338     1.725796705715     1.007825032230
         H           -2.451786935031    -2.917603934662    -1.196984294285     1.007825032230
         H           -4.404000935031    -1.974698934662     0.032361705715     1.007825032230

  Nuclear repulsion =  999.780418158212569
  Reference energy  = -631.728147528511954

  ==> Basis Set <==

  Basis Set: AUG-CC-PVTZ
    Blend: AUG-CC-PVTZ
    Number of shells: 363
    Number of basis functions: 1081
    Number of Cartesian functions: 1250
    Spherical Harmonics?: true
    Max angular momentum: 3

  ==> CGRSolver (by Rob Parrish) <==

   Number of roots    =         1
   Preconditioning    =    JACOBI
   Convergence cutoff =     1E-06
   Maximum iterations =       100

  ==> CPHFRHamiltonian (by Rob Parrish) <== 

  ==> MemDFJK: Density-Fitted J/K Matrices <==

    J tasked:                   Yes
    K tasked:                   Yes
    wK tasked:                   No
    OpenMP threads:               8
    Memory [MiB]:             22888
    Algorithm:                 Core
    Schwarz Cutoff:           1E-12
    Mask sparsity (%):      11.0327
    Fitting Condition:        1E-10

   => Auxiliary Basis Set <=

  Basis Set: (AUG-CC-PVTZ AUX)
    Blend: AUG-CC-PVTZ-JKFIT
    Number of shells: 688
    Number of basis functions: 2342
    Number of Cartesian functions: 2900
    Spherical Harmonics?: true
    Max angular momentum: 4

  ==> CPHF Iterations <==

  => Iterations <=

             Iter  Converged  Remaining    Residual
  CGR           1          0          1   1.132E-01
  CGR           2          0          1   3.370E-02
  CGR           3          0          1   1.435E-02
  CGR           4          0          1   5.403E-03
  CGR           5          0          1   2.483E-03
  CGR           6          0          1   1.286E-03
  CGR           7          0          1   4.767E-04
  CGR           8          0          1   1.808E-04
  CGR           9          0          1   5.770E-05
  CGR          10          0          1   1.908E-05
  CGR          11          0          1   8.292E-06
  CGR          12          0          1   2.905E-06
  CGR          13          0          1   1.220E-06
  CGR          14          1          0   4.143E-07

    CGRSolver converged.

	-----------------------------------------------------------
	 ==================> DF-MP2 Energies <==================== 
	-----------------------------------------------------------
	 Reference Energy          =    -631.7281475285119541 [Eh]
	 Singles Energy            =      -0.0000000000000000 [Eh]
	 Same-Spin Energy          =      -0.6892544811006958 [Eh]
	 Opposite-Spin Energy      =      -2.2128643023374606 [Eh]
	 Correlation Energy        =      -2.9021187834381563 [Eh]
	 Total Energy              =    -634.6302663119500949 [Eh]
	-----------------------------------------------------------
	 ================> DF-SCS-MP2 Energies <================== 
	-----------------------------------------------------------
	 SCS Same-Spin Scale       =       0.3333333333333333 [-]
	 SCS Opposite-Spin Scale   =       1.2000000000000000 [-]
	 SCS Same-Spin Energy      =      -0.2297514937002319 [Eh]
	 SCS Opposite-Spin Energy  =      -2.6554371628049527 [Eh]
	 SCS Correlation Energy    =      -2.8851886565051847 [Eh]
	 SCS Total Energy          =    -634.6133361850171468 [Eh]
	-----------------------------------------------------------



Properties will be evaluated at  -0.000000,   0.000000,   0.000000 [a0]

Properties computed using the MP2 density matrix

  Nuclear Dipole Moment: [e a0]
     X:     9.4611      Y:    -2.8305      Z:     5.2222

  Electronic Dipole Moment: [e a0]
     X:    -8.9033      Y:     1.8425      Z:    -4.3210

  Dipole Moment: [e a0]
     X:     0.5578      Y:    -0.9880      Z:     0.9013     Total:     1.4490

  Dipole Moment: [D]
     X:     1.4178      Y:    -2.5113      Z:     2.2908     Total:     3.6830


*** tstop() called on c450-021.stampede2.tacc.utexas.edu at Fri Apr  2 13:20:55 2021
Module time:
	user time   =    7863.28 seconds =     131.05 minutes
	system time =      96.72 seconds =       1.61 minutes
	total time  =       1165 seconds =      19.42 minutes
Total time:
	user time   =    9630.53 seconds =     160.51 minutes
	system time =     139.37 seconds =       2.32 minutes
	total time  =       1422 seconds =      23.70 minutes

    Psi4 stopped on: Friday, 02 April 2021 01:20PM
    Psi4 wall time for execution: 0:23:44.93

*** Psi4 exiting successfully. Buy a developer a beer!
