
    -----------------------------------------------------------------------
          Psi4: An Open-Source Ab Initio Electronic Structure Package
                               Psi4 1.4a3.dev225 

                         Git: Rev {master} 7105e37 


    D. G. A. Smith, L. A. Burns, A. C. Simmonett, R. M. Parrish,
    M. C. Schieber, R. Galvelis, P. Kraus, H. Kruse, R. Di Remigio,
    A. Alenaizan, A. M. James, S. Lehtola, J. P. Misiewicz, M. Scheurer,
    R. A. Shaw, J. B. Schriber, Y. Xie, Z. L. Glick, D. A. Sirianni,
    J. S. O'Brien, J. M. Waldrop, A. Kumar, E. G. Hohenstein,
    B. P. Pritchard, B. R. Brooks, H. F. Schaefer III, A. Yu. Sokolov,
    K. Patkowski, A. E. DePrince III, U. Bozkaya, R. A. King,
    F. A. Evangelista, J. M. Turney, T. D. Crawford, C. D. Sherrill,
    J. Chem. Phys. 152(18) 184108 (2020). https://doi.org/10.1063/5.0006002

                            Additional Code Authors
    E. T. Seidl, C. L. Janssen, E. F. Valeev, M. L. Leininger,
    J. F. Gonthier, R. M. Richard, H. R. McAlexander, M. Saitow, X. Wang,
    P. Verma, and M. H. Lechner

             Previous Authors, Complete List of Code Contributors,
                       and Citations for Specific Modules
    https://github.com/psi4/psi4/blob/master/codemeta.json
    https://github.com/psi4/psi4/graphs/contributors
    http://psicode.org/psi4manual/master/introduction.html#citing-psifour

    -----------------------------------------------------------------------


    Psi4 started on: Sunday, 07 March 2021 05:55PM

    Process ID: 228610
    Host:       c418-134.stampede2.tacc.utexas.edu
    PSIDATADIR: /home1/07844/xy3866/miniconda3/envs/p4env/share/psi4
    Memory:     500.0 MiB
    Threads:    32
    
  ==> Input File <==

--------------------------------------------------------------------------
#psi4
#
memory 32 gb

molecule  {
0 1
  O        0.0109280     1.9504830    -1.2088660
  N        1.2104930     0.4628600     0.0596820
  C        3.6816010    -0.9509880     0.4072830
  C        3.5342200     0.1692850    -0.6230390
  C        2.3335540    -1.6180450     0.6838790
  C        2.4642000     1.1676880    -0.1911000
  C        1.2914730    -0.5760260     1.0805660
  C        0.0527250     0.9288280    -0.5097470
  C       -1.1808260     0.1020470    -0.2945890
  C       -2.2823960     0.6556420     0.3835130
  C       -1.2622800    -1.1716740    -0.8705440
  C       -3.4454200    -0.1153760     0.4879690
  C       -2.2065840     2.0368470     0.9809810
  C       -2.4366510    -1.9182050    -0.7675160
  C       -3.5304630    -1.3875060    -0.0828830
  H        4.4130950    -1.6928310     0.0671840
  H        4.0710030    -0.5292960     1.3442740
  H        4.4878230     0.6919580    -0.7653020
  H        3.2457620    -0.2529490    -1.5933530
  H        1.9831950    -2.1398170    -0.2152240
  H        2.4267450    -2.3652010     1.4815110
  H        2.7768740     1.6847790     0.7291870
  H        2.2671880     1.9220510    -0.9540200
  H        0.3069530    -1.0243470     1.2170770
  H        1.6099093    -0.0660999     2.1212582
  H       -0.4031770    -1.5700500    -1.4080150
  H       -4.3043690     0.2928860     1.0181070
  H       -2.0253310     2.7815300     0.2022010
  H       -3.1368610     2.2826280     1.5002420
  H       -1.3844770     2.1136550     1.7007310
  H       -2.4977120    -2.9041740    -1.2220500
  H       -4.4499260    -1.9612690     0.0072960
units angstrom
no_reorient  #important for SAPT in psi4, default
symmetry c1  #important for SAPT in psi4, default
}

set PROPERTIES_ORIGIN ["COM"]
properties('MP2/aug-cc-pvtz', properties = ['dipole'])
--------------------------------------------------------------------------

  Memory set to  29.802 GiB by Python driver.
    SCF Algorithm Type (re)set to DF.

*** tstart() called on c418-134.stampede2.tacc.utexas.edu
*** at Sun Mar  7 17:55:54 2021

   => Loading Basis Set <=

    Name: AUG-CC-PVTZ
    Role: ORBITAL
    Keyword: BASIS
    atoms 1     entry O          line   331 file /home1/07844/xy3866/miniconda3/envs/p4env/share/psi4/basis/aug-cc-pvtz.gbs 
    atoms 2     entry N          line   285 file /home1/07844/xy3866/miniconda3/envs/p4env/share/psi4/basis/aug-cc-pvtz.gbs 
    atoms 3-15  entry C          line   239 file /home1/07844/xy3866/miniconda3/envs/p4env/share/psi4/basis/aug-cc-pvtz.gbs 
    atoms 16-32 entry H          line    40 file /home1/07844/xy3866/miniconda3/envs/p4env/share/psi4/basis/aug-cc-pvtz.gbs 


         ---------------------------------------------------------
                                   SCF
               by Justin Turney, Rob Parrish, Andy Simmonett
                          and Daniel G. A. Smith
                              RHF Reference
                       32 Threads,  30517 MiB Core
         ---------------------------------------------------------

  ==> Geometry <==

    Molecular point group: c1
    Full point group: C1

    Geometry (in Angstrom), charge = 0, multiplicity = 1:

       Center              X                  Y                   Z               Mass       
    ------------   -----------------  -----------------  -----------------  -----------------
         O            0.056497619511     1.936740561755    -1.184198849810    15.994914619570
         N            1.256062619511     0.449117561755     0.084349150190    14.003074004430
         C            3.727170619511    -0.964730438245     0.431950150190    12.000000000000
         C            3.579789619511     0.155542561755    -0.598371849810    12.000000000000
         C            2.379123619511    -1.631787438245     0.708546150190    12.000000000000
         C            2.509769619511     1.153945561755    -0.166432849810    12.000000000000
         C            1.337042619511    -0.589768438245     1.105233150190    12.000000000000
         C            0.098294619511     0.915085561755    -0.485079849810    12.000000000000
         C           -1.135256380489     0.088304561755    -0.269921849810    12.000000000000
         C           -2.236826380489     0.641899561755     0.408180150190    12.000000000000
         C           -1.216710380489    -1.185416438245    -0.845876849810    12.000000000000
         C           -3.399850380489    -0.129118438245     0.512636150190    12.000000000000
         C           -2.161014380489     2.023104561755     1.005648150190    12.000000000000
         C           -2.391081380489    -1.931947438245    -0.742848849810    12.000000000000
         C           -3.484893380489    -1.401248438245    -0.058215849810    12.000000000000
         H            4.458664619511    -1.706573438245     0.091851150190     1.007825032230
         H            4.116572619511    -0.543038438245     1.368941150190     1.007825032230
         H            4.533392619511     0.678215561755    -0.740634849810     1.007825032230
         H            3.291331619511    -0.266691438245    -1.568685849810     1.007825032230
         H            2.028764619511    -2.153559438245    -0.190556849810     1.007825032230
         H            2.472314619511    -2.378943438245     1.506178150190     1.007825032230
         H            2.822443619511     1.671036561755     0.753854150190     1.007825032230
         H            2.312757619511     1.908308561755    -0.929352849810     1.007825032230
         H            0.352522619511    -1.038089438245     1.241744150190     1.007825032230
         H            1.655478919511    -0.079842338245     2.145925350190     1.007825032230
         H           -0.357607380489    -1.583792438245    -1.383347849810     1.007825032230
         H           -4.258799380489     0.279143561755     1.042774150190     1.007825032230
         H           -1.979761380489     2.767787561755     0.226868150190     1.007825032230
         H           -3.091291380489     2.268885561755     1.524909150190     1.007825032230
         H           -1.338907380489     2.099912561755     1.725398150190     1.007825032230
         H           -2.452142380489    -2.917916438245    -1.197382849810     1.007825032230
         H           -4.404356380489    -1.975011438245     0.031963150190     1.007825032230

  Running in c1 symmetry.

  Rotational constants: A =      0.03821  B =      0.01321  C =      0.01127 [cm^-1]
  Rotational constants: A =   1145.60088  B =    396.14134  C =    337.98107 [MHz]
  Nuclear repulsion =  999.428988836663507

  Charge       = 0
  Multiplicity = 1
  Electrons    = 110
  Nalpha       = 55
  Nbeta        = 55

  ==> Algorithm <==

  SCF Algorithm Type is DF.
  DIIS enabled.
  MOM disabled.
  Fractional occupation disabled.
  Guess Type is SAD.
  Energy threshold   = 1.00e-10
  Density threshold  = 1.00e-10
  Integral threshold = 1.00e-12

  ==> Primary Basis <==

  Basis Set: AUG-CC-PVTZ
    Blend: AUG-CC-PVTZ
    Number of shells: 363
    Number of basis functions: 1081
    Number of Cartesian functions: 1250
    Spherical Harmonics?: true
    Max angular momentum: 3

   => Loading Basis Set <=

    Name: (AUG-CC-PVTZ AUX)
    Role: JKFIT
    Keyword: DF_BASIS_SCF
    atoms 1     entry O          line   286 file /home1/07844/xy3866/miniconda3/envs/p4env/share/psi4/basis/aug-cc-pvtz-jkfit.gbs 
    atoms 2     entry N          line   224 file /home1/07844/xy3866/miniconda3/envs/p4env/share/psi4/basis/aug-cc-pvtz-jkfit.gbs 
    atoms 3-15  entry C          line   162 file /home1/07844/xy3866/miniconda3/envs/p4env/share/psi4/basis/aug-cc-pvtz-jkfit.gbs 
    atoms 16-32 entry H          line    70 file /home1/07844/xy3866/miniconda3/envs/p4env/share/psi4/basis/aug-cc-pvtz-jkfit.gbs 

  ==> Integral Setup <==

  DFHelper Memory: AOs need 17.441 GiB; user supplied 22.352 GiB. Using in-core AOs.

  ==> MemDFJK: Density-Fitted J/K Matrices <==

    J tasked:                   Yes
    K tasked:                   Yes
    wK tasked:                   No
    OpenMP threads:              32
    Memory [MiB]:             22888
    Algorithm:                 Core
    Schwarz Cutoff:           1E-12
    Mask sparsity (%):      17.1846
    Fitting Condition:        1E-10

   => Auxiliary Basis Set <=

  Basis Set: (AUG-CC-PVTZ AUX)
    Blend: AUG-CC-PVTZ-JKFIT
    Number of shells: 688
    Number of basis functions: 2342
    Number of Cartesian functions: 2900
    Spherical Harmonics?: true
    Max angular momentum: 4

  Minimum eigenvalue in the overlap matrix is 3.5790835148E-07.
  Reciprocal condition number of the overlap matrix is 1.4236247067E-08.
    Using symmetric orthogonalization.

  ==> Pre-Iterations <==

  SCF Guess: Superposition of Atomic Densities via on-the-fly atomic UHF (no occupation information).

   -------------------------
    Irrep   Nso     Nmo    
   -------------------------
     A       1081    1081 
   -------------------------
    Total    1081    1081
   -------------------------

  ==> Iterations <==

                           Total Energy        Delta E     RMS |[F,P]|

   @DF-RHF iter SAD:  -631.59547143241480   -6.31595e+02   0.00000e+00 
   @DF-RHF iter   1:  -631.23287311235947    3.62598e-01   8.38979e-04 DIIS
   @DF-RHF iter   2:  -631.61854071343862   -3.85668e-01   4.39768e-04 DIIS
   @DF-RHF iter   3:  -631.71644100753599   -9.79003e-02   9.49758e-05 DIIS
   @DF-RHF iter   4:  -631.72317586504050   -6.73486e-03   3.84627e-05 DIIS
   @DF-RHF iter   5:  -631.72410971705665   -9.33852e-04   1.00056e-05 DIIS
   @DF-RHF iter   6:  -631.72419894682298   -8.92298e-05   4.09841e-06 DIIS
   @DF-RHF iter   7:  -631.72421674116833   -1.77943e-05   1.32329e-06 DIIS
   @DF-RHF iter   8:  -631.72422046776637   -3.72660e-06   6.60725e-07 DIIS
   @DF-RHF iter   9:  -631.72422125580886   -7.88042e-07   2.19926e-07 DIIS
   @DF-RHF iter  10:  -631.72422134070644   -8.48976e-08   7.08582e-08 DIIS
   @DF-RHF iter  11:  -631.72422134828616   -7.57973e-09   2.55148e-08 DIIS
   @DF-RHF iter  12:  -631.72422134899375   -7.07587e-10   1.21306e-08 DIIS
   @DF-RHF iter  13:  -631.72422134919395   -2.00203e-10   3.77036e-09 DIIS
   @DF-RHF iter  14:  -631.72422134922704   -3.30829e-11   1.80051e-09 DIIS
   @DF-RHF iter  15:  -631.72422134923545   -8.41283e-12   9.10721e-10 DIIS
   @DF-RHF iter  16:  -631.72422134923534    1.13687e-13   3.97291e-10 DIIS
   @DF-RHF iter  17:  -631.72422134923590   -5.68434e-13   1.70519e-10 DIIS
   @DF-RHF iter  18:  -631.72422134923977   -3.86535e-12   5.39539e-11 DIIS
  Energy and wave function converged.


  ==> Post-Iterations <==

    Orbital Energies [Eh]
    ---------------------

    Doubly Occupied:                                                      

       1A    -20.511876     2A    -15.585514     3A    -11.350418  
       4A    -11.278891     5A    -11.254776     6A    -11.252260  
       7A    -11.246856     8A    -11.245519     9A    -11.243043  
      10A    -11.239527    11A    -11.237316    12A    -11.231858  
      13A    -11.228382    14A    -11.225857    15A    -11.220494  
      16A     -1.367928    17A     -1.249981    18A     -1.161850  
      19A     -1.083819    20A     -1.051137    21A     -1.036906  
      22A     -1.022208    23A     -0.943031    24A     -0.917387  
      25A     -0.865637    26A     -0.844514    27A     -0.815576  
      28A     -0.790891    29A     -0.740368    30A     -0.712029  
      31A     -0.667049    32A     -0.652305    33A     -0.645825  
      34A     -0.628117    35A     -0.618498    36A     -0.615055  
      37A     -0.596096    38A     -0.585618    39A     -0.576010  
      40A     -0.571829    41A     -0.561030    42A     -0.548019  
      43A     -0.541633    44A     -0.523469    45A     -0.507962  
      46A     -0.498050    47A     -0.491152    48A     -0.489286  
      49A     -0.478895    50A     -0.469249    51A     -0.461886  
      52A     -0.417599    53A     -0.366018    54A     -0.340450  
      55A     -0.330379  

    Virtual:                                                              

      56A      0.024632    57A      0.028920    58A      0.030374  
      59A      0.034858    60A      0.039852    61A      0.040175  
      62A      0.049345    63A      0.051962    64A      0.054162  
      65A      0.055321    66A      0.058514    67A      0.068797  
      68A      0.070503    69A      0.072887    70A      0.077651  
      71A      0.078887    72A      0.087426    73A      0.095237  
      74A      0.099775    75A      0.102659    76A      0.108166  
      77A      0.109590    78A      0.111169    79A      0.112458  
      80A      0.116210    81A      0.119169    82A      0.121235  
      83A      0.123592    84A      0.124599    85A      0.126812  
      86A      0.130158    87A      0.131752    88A      0.135581  
      89A      0.139770    90A      0.140189    91A      0.143117  
      92A      0.148014    93A      0.150310    94A      0.152310  
      95A      0.154079    96A      0.156916    97A      0.158662  
      98A      0.166422    99A      0.167885   100A      0.170993  
     101A      0.172044   102A      0.175051   103A      0.183183  
     104A      0.183948   105A      0.187329   106A      0.190778  
     107A      0.193778   108A      0.194106   109A      0.198911  
     110A      0.202881   111A      0.207999   112A      0.210313  
     113A      0.216711   114A      0.221893   115A      0.225871  
     116A      0.228953   117A      0.233207   118A      0.242326  
     119A      0.243080   120A      0.244766   121A      0.249748  
     122A      0.252823   123A      0.257836   124A      0.262288  
     125A      0.268807   126A      0.270604   127A      0.272844  
     128A      0.276515   129A      0.284671   130A      0.285972  
     131A      0.290070   132A      0.290870   133A      0.298022  
     134A      0.299948   135A      0.306448   136A      0.307090  
     137A      0.311081   138A      0.312619   139A      0.316627  
     140A      0.320745   141A      0.321813   142A      0.325462  
     143A      0.330411   144A      0.331784   145A      0.335016  
     146A      0.337057   147A      0.340629   148A      0.343155  
     149A      0.345642   150A      0.346709   151A      0.350864  
     152A      0.352534   153A      0.353778   154A      0.358910  
     155A      0.362658   156A      0.366716   157A      0.369760  
     158A      0.373095   159A      0.375077   160A      0.381644  
     161A      0.384271   162A      0.386035   163A      0.392740  
     164A      0.397069   165A      0.399583   166A      0.402632  
     167A      0.406080   168A      0.410819   169A      0.413312  
     170A      0.414994   171A      0.418035   172A      0.422112  
     173A      0.424061   174A      0.429523   175A      0.432190  
     176A      0.433309   177A      0.438076   178A      0.439116  
     179A      0.440685   180A      0.447227   181A      0.451582  
     182A      0.453629   183A      0.456640   184A      0.458928  
     185A      0.462019   186A      0.468009   187A      0.473557  
     188A      0.475042   189A      0.476520   190A      0.479349  
     191A      0.482080   192A      0.488279   193A      0.490373  
     194A      0.491237   195A      0.492961   196A      0.498504  
     197A      0.499533   198A      0.504872   199A      0.506533  
     200A      0.507436   201A      0.511856   202A      0.513424  
     203A      0.514480   204A      0.517948   205A      0.520800  
     206A      0.523454   207A      0.526137   208A      0.526981  
     209A      0.529078   210A      0.534181   211A      0.535332  
     212A      0.542911   213A      0.544783   214A      0.547218  
     215A      0.549444   216A      0.554170   217A      0.555461  
     218A      0.562459   219A      0.563408   220A      0.564294  
     221A      0.565188   222A      0.570442   223A      0.574413  
     224A      0.578994   225A      0.582298   226A      0.583702  
     227A      0.589398   228A      0.591028   229A      0.597305  
     230A      0.599045   231A      0.602864   232A      0.607024  
     233A      0.609532   234A      0.614907   235A      0.615922  
     236A      0.620640   237A      0.623031   238A      0.624985  
     239A      0.632847   240A      0.637873   241A      0.640063  
     242A      0.645736   243A      0.648918   244A      0.656918  
     245A      0.660789   246A      0.663590   247A      0.663885  
     248A      0.670117   249A      0.675816   250A      0.678596  
     251A      0.683253   252A      0.688906   253A      0.692620  
     254A      0.695943   255A      0.698287   256A      0.700025  
     257A      0.706672   258A      0.710269   259A      0.711692  
     260A      0.714385   261A      0.724104   262A      0.728448  
     263A      0.728887   264A      0.734793   265A      0.737609  
     266A      0.740039   267A      0.747310   268A      0.750580  
     269A      0.754707   270A      0.758003   271A      0.766083  
     272A      0.769722   273A      0.775878   274A      0.779236  
     275A      0.782693   276A      0.786071   277A      0.797302  
     278A      0.801855   279A      0.804143   280A      0.807632  
     281A      0.810407   282A      0.816098   283A      0.824893  
     284A      0.827837   285A      0.832300   286A      0.836687  
     287A      0.843351   288A      0.846866   289A      0.849255  
     290A      0.859219   291A      0.861928   292A      0.865471  
     293A      0.867775   294A      0.870494   295A      0.871895  
     296A      0.874588   297A      0.882350   298A      0.887734  
     299A      0.894450   300A      0.897173   301A      0.898348  
     302A      0.900545   303A      0.905494   304A      0.909762  
     305A      0.915249   306A      0.915660   307A      0.922919  
     308A      0.927651   309A      0.930872   310A      0.933465  
     311A      0.940011   312A      0.943321   313A      0.945076  
     314A      0.950768   315A      0.952587   316A      0.956202  
     317A      0.962121   318A      0.964908   319A      0.968374  
     320A      0.969957   321A      0.972387   322A      0.976954  
     323A      0.981004   324A      0.985426   325A      0.991857  
     326A      0.995720   327A      0.997715   328A      1.003753  
     329A      1.010063   330A      1.014635   331A      1.015753  
     332A      1.019111   333A      1.029354   334A      1.032117  
     335A      1.038650   336A      1.040202   337A      1.040241  
     338A      1.044533   339A      1.045359   340A      1.052908  
     341A      1.054448   342A      1.058450   343A      1.062860  
     344A      1.066418   345A      1.072967   346A      1.074323  
     347A      1.080310   348A      1.082514   349A      1.087232  
     350A      1.089956   351A      1.092161   352A      1.096333  
     353A      1.101947   354A      1.103685   355A      1.105524  
     356A      1.112093   357A      1.113129   358A      1.117613  
     359A      1.123697   360A      1.124609   361A      1.125594  
     362A      1.130231   363A      1.136566   364A      1.139331  
     365A      1.144132   366A      1.145648   367A      1.147803  
     368A      1.150244   369A      1.156723   370A      1.160385  
     371A      1.165339   372A      1.166763   373A      1.169204  
     374A      1.177031   375A      1.181770   376A      1.188476  
     377A      1.193011   378A      1.200162   379A      1.203447  
     380A      1.204576   381A      1.207921   382A      1.214328  
     383A      1.219505   384A      1.221932   385A      1.225773  
     386A      1.232807   387A      1.235426   388A      1.235887  
     389A      1.241162   390A      1.245096   391A      1.250435  
     392A      1.255617   393A      1.255973   394A      1.263221  
     395A      1.265847   396A      1.269126   397A      1.271641  
     398A      1.280115   399A      1.283085   400A      1.287318  
     401A      1.294012   402A      1.298276   403A      1.298675  
     404A      1.308525   405A      1.311372   406A      1.316923  
     407A      1.322305   408A      1.332782   409A      1.335825  
     410A      1.339924   411A      1.343425   412A      1.344889  
     413A      1.353201   414A      1.355846   415A      1.362932  
     416A      1.366059   417A      1.369954   418A      1.376141  
     419A      1.383727   420A      1.387966   421A      1.389530  
     422A      1.396551   423A      1.400412   424A      1.403624  
     425A      1.410478   426A      1.414812   427A      1.422831  
     428A      1.429147   429A      1.431653   430A      1.436578  
     431A      1.437845   432A      1.444100   433A      1.453906  
     434A      1.456990   435A      1.459790   436A      1.463908  
     437A      1.471929   438A      1.476552   439A      1.487147  
     440A      1.489588   441A      1.493803   442A      1.498143  
     443A      1.498675   444A      1.504461   445A      1.510198  
     446A      1.514366   447A      1.518202   448A      1.521328  
     449A      1.530732   450A      1.541547   451A      1.543190  
     452A      1.548807   453A      1.553688   454A      1.555353  
     455A      1.562063   456A      1.566910   457A      1.573481  
     458A      1.581075   459A      1.583149   460A      1.587097  
     461A      1.591247   462A      1.596693   463A      1.600610  
     464A      1.606809   465A      1.611423   466A      1.613058  
     467A      1.617216   468A      1.624982   469A      1.625632  
     470A      1.637898   471A      1.642603   472A      1.647433  
     473A      1.652259   474A      1.659348   475A      1.662666  
     476A      1.666316   477A      1.673125   478A      1.677016  
     479A      1.679825   480A      1.688427   481A      1.693340  
     482A      1.695352   483A      1.702956   484A      1.704582  
     485A      1.714086   486A      1.720368   487A      1.727432  
     488A      1.730105   489A      1.737261   490A      1.746678  
     491A      1.748814   492A      1.753264   493A      1.758209  
     494A      1.767227   495A      1.774052   496A      1.777887  
     497A      1.781081   498A      1.783814   499A      1.788162  
     500A      1.792904   501A      1.797500   502A      1.802404  
     503A      1.809158   504A      1.812146   505A      1.819117  
     506A      1.826062   507A      1.830176   508A      1.831834  
     509A      1.835898   510A      1.845880   511A      1.851718  
     512A      1.854831   513A      1.857020   514A      1.862631  
     515A      1.863968   516A      1.876336   517A      1.879376  
     518A      1.884082   519A      1.885320   520A      1.887435  
     521A      1.893316   522A      1.896561   523A      1.899853  
     524A      1.901864   525A      1.913203   526A      1.921609  
     527A      1.931358   528A      1.935118   529A      1.940155  
     530A      1.946114   531A      1.948186   532A      1.953837  
     533A      1.964587   534A      1.968857   535A      1.975091  
     536A      1.980642   537A      1.982520   538A      1.990383  
     539A      1.992179   540A      1.995319   541A      1.997300  
     542A      2.000796   543A      2.010703   544A      2.013950  
     545A      2.024887   546A      2.029572   547A      2.031296  
     548A      2.038447   549A      2.040656   550A      2.046734  
     551A      2.059166   552A      2.061062   553A      2.066434  
     554A      2.069995   555A      2.071812   556A      2.081697  
     557A      2.086934   558A      2.091368   559A      2.096947  
     560A      2.098721   561A      2.103056   562A      2.114867  
     563A      2.125550   564A      2.129246   565A      2.134554  
     566A      2.137404   567A      2.142285   568A      2.145922  
     569A      2.151255   570A      2.156921   571A      2.158205  
     572A      2.172028   573A      2.174714   574A      2.187235  
     575A      2.194128   576A      2.199052   577A      2.209577  
     578A      2.211073   579A      2.215729   580A      2.219727  
     581A      2.232818   582A      2.239847   583A      2.244716  
     584A      2.251649   585A      2.255381   586A      2.266564  
     587A      2.278226   588A      2.286821   589A      2.291620  
     590A      2.293856   591A      2.300953   592A      2.311318  
     593A      2.315331   594A      2.322355   595A      2.326090  
     596A      2.329890   597A      2.340332   598A      2.342898  
     599A      2.347164   600A      2.353794   601A      2.360743  
     602A      2.370125   603A      2.372100   604A      2.376744  
     605A      2.386651   606A      2.397525   607A      2.405814  
     608A      2.416133   609A      2.419707   610A      2.423754  
     611A      2.438189   612A      2.443285   613A      2.450953  
     614A      2.453317   615A      2.468069   616A      2.469598  
     617A      2.488069   618A      2.492247   619A      2.494239  
     620A      2.503260   621A      2.510756   622A      2.514222  
     623A      2.527375   624A      2.535123   625A      2.546395  
     626A      2.548671   627A      2.562247   628A      2.578203  
     629A      2.585494   630A      2.590203   631A      2.602051  
     632A      2.610101   633A      2.620799   634A      2.626880  
     635A      2.639562   636A      2.649315   637A      2.652994  
     638A      2.659052   639A      2.664865   640A      2.680030  
     641A      2.689874   642A      2.693548   643A      2.705046  
     644A      2.707882   645A      2.711604   646A      2.726051  
     647A      2.731352   648A      2.737826   649A      2.759824  
     650A      2.768145   651A      2.782900   652A      2.797564  
     653A      2.798953   654A      2.812956   655A      2.815036  
     656A      2.825080   657A      2.841373   658A      2.855281  
     659A      2.864833   660A      2.875982   661A      2.881909  
     662A      2.889964   663A      2.901263   664A      2.951925  
     665A      2.958009   666A      2.967860   667A      2.981890  
     668A      2.997940   669A      3.003436   670A      3.022437  
     671A      3.049489   672A      3.065859   673A      3.110343  
     674A      3.132885   675A      3.147375   676A      3.162720  
     677A      3.182757   678A      3.193334   679A      3.205201  
     680A      3.220922   681A      3.235711   682A      3.256706  
     683A      3.271188   684A      3.283394   685A      3.297136  
     686A      3.307894   687A      3.328943   688A      3.350756  
     689A      3.365188   690A      3.379988   691A      3.392101  
     692A      3.404334   693A      3.412895   694A      3.418762  
     695A      3.422954   696A      3.440344   697A      3.456238  
     698A      3.470774   699A      3.479504   700A      3.483243  
     701A      3.496810   702A      3.506381   703A      3.516823  
     704A      3.521699   705A      3.525946   706A      3.535963  
     707A      3.539837   708A      3.547675   709A      3.556021  
     710A      3.563212   711A      3.574181   712A      3.577910  
     713A      3.583179   714A      3.595203   715A      3.606620  
     716A      3.611005   717A      3.616933   718A      3.623133  
     719A      3.628475   720A      3.637326   721A      3.642822  
     722A      3.647179   723A      3.661438   724A      3.669336  
     725A      3.673422   726A      3.684159   727A      3.692373  
     728A      3.696075   729A      3.703652   730A      3.710166  
     731A      3.713067   732A      3.720633   733A      3.732045  
     734A      3.742471   735A      3.749654   736A      3.753822  
     737A      3.768236   738A      3.770052   739A      3.771835  
     740A      3.779796   741A      3.786778   742A      3.796432  
     743A      3.805085   744A      3.817540   745A      3.820284  
     746A      3.826627   747A      3.834589   748A      3.840211  
     749A      3.842789   750A      3.846705   751A      3.854485  
     752A      3.861694   753A      3.872536   754A      3.878035  
     755A      3.879540   756A      3.889253   757A      3.896335  
     758A      3.900055   759A      3.911125   760A      3.914979  
     761A      3.916729   762A      3.928660   763A      3.931201  
     764A      3.932421   765A      3.947197   766A      3.951592  
     767A      3.956362   768A      3.962237   769A      3.963308  
     770A      3.971564   771A      3.981763   772A      3.985085  
     773A      3.991518   774A      3.996729   775A      4.003379  
     776A      4.014386   777A      4.015725   778A      4.019200  
     779A      4.025885   780A      4.027000   781A      4.029712  
     782A      4.041290   783A      4.048926   784A      4.056509  
     785A      4.059821   786A      4.064517   787A      4.069122  
     788A      4.073654   789A      4.077098   790A      4.088595  
     791A      4.091322   792A      4.096155   793A      4.111659  
     794A      4.113590   795A      4.123134   796A      4.125124  
     797A      4.136588   798A      4.140921   799A      4.151329  
     800A      4.163960   801A      4.168763   802A      4.173340  
     803A      4.182408   804A      4.185394   805A      4.199388  
     806A      4.204870   807A      4.206012   808A      4.211460  
     809A      4.225471   810A      4.230480   811A      4.230946  
     812A      4.239976   813A      4.246241   814A      4.255111  
     815A      4.262649   816A      4.264009   817A      4.271678  
     818A      4.283972   819A      4.285238   820A      4.290816  
     821A      4.298775   822A      4.305988   823A      4.317982  
     824A      4.325607   825A      4.327750   826A      4.336585  
     827A      4.344905   828A      4.351892   829A      4.355633  
     830A      4.367001   831A      4.371153   832A      4.379763  
     833A      4.386786   834A      4.388699   835A      4.395149  
     836A      4.407545   837A      4.409405   838A      4.416096  
     839A      4.421570   840A      4.428133   841A      4.433787  
     842A      4.440049   843A      4.447659   844A      4.451538  
     845A      4.464891   846A      4.467282   847A      4.478911  
     848A      4.479638   849A      4.483140   850A      4.497866  
     851A      4.514428   852A      4.522981   853A      4.531485  
     854A      4.540115   855A      4.545773   856A      4.550022  
     857A      4.553692   858A      4.562823   859A      4.574818  
     860A      4.585758   861A      4.597298   862A      4.611090  
     863A      4.614043   864A      4.628179   865A      4.634949  
     866A      4.646655   867A      4.653633   868A      4.666300  
     869A      4.677376   870A      4.685355   871A      4.690907  
     872A      4.697278   873A      4.710200   874A      4.712020  
     875A      4.722462   876A      4.730038   877A      4.735936  
     878A      4.744760   879A      4.752278   880A      4.762403  
     881A      4.770546   882A      4.775139   883A      4.784829  
     884A      4.792115   885A      4.807538   886A      4.810348  
     887A      4.827638   888A      4.835812   889A      4.837231  
     890A      4.839333   891A      4.848105   892A      4.853154  
     893A      4.861515   894A      4.872793   895A      4.892984  
     896A      4.905323   897A      4.912226   898A      4.916952  
     899A      4.919986   900A      4.946164   901A      4.950741  
     902A      4.957370   903A      4.962920   904A      4.964569  
     905A      4.969486   906A      4.971980   907A      4.996508  
     908A      5.002305   909A      5.005165   910A      5.015935  
     911A      5.027569   912A      5.036400   913A      5.040502  
     914A      5.056021   915A      5.060843   916A      5.077822  
     917A      5.091367   918A      5.103553   919A      5.110233  
     920A      5.116135   921A      5.135455   922A      5.137600  
     923A      5.147512   924A      5.155304   925A      5.164386  
     926A      5.174738   927A      5.177349   928A      5.184748  
     929A      5.191177   930A      5.201702   931A      5.214272  
     932A      5.221052   933A      5.224383   934A      5.230284  
     935A      5.241399   936A      5.248887   937A      5.257220  
     938A      5.260686   939A      5.270105   940A      5.276289  
     941A      5.278444   942A      5.290613   943A      5.307728  
     944A      5.321761   945A      5.323090   946A      5.327446  
     947A      5.340208   948A      5.346292   949A      5.360916  
     950A      5.373645   951A      5.380102   952A      5.397231  
     953A      5.398555   954A      5.406982   955A      5.414727  
     956A      5.417400   957A      5.431042   958A      5.437015  
     959A      5.450082   960A      5.463573   961A      5.470578  
     962A      5.483119   963A      5.489721   964A      5.496389  
     965A      5.504402   966A      5.529006   967A      5.549246  
     968A      5.555431   969A      5.576483   970A      5.592165  
     971A      5.598462   972A      5.608534   973A      5.617056  
     974A      5.624500   975A      5.645742   976A      5.654131  
     977A      5.658845   978A      5.678902   979A      5.684554  
     980A      5.695962   981A      5.698751   982A      5.720017  
     983A      5.733279   984A      5.738610   985A      5.758082  
     986A      5.772391   987A      5.775709   988A      5.787319  
     989A      5.792645   990A      5.811014   991A      5.817173  
     992A      5.834177   993A      5.844940   994A      5.861731  
     995A      5.889679   996A      5.902089   997A      5.908582  
     998A      5.920308   999A      5.949867  1000A      5.983726  
    1001A      5.995939  1002A      6.009009  1003A      6.034506  
    1004A      6.068753  1005A      6.081845  1006A      6.113920  
    1007A      6.114028  1008A      6.131491  1009A      6.138229  
    1010A      6.161098  1011A      6.188763  1012A      6.193917  
    1013A      6.204246  1014A      6.214511  1015A      6.224928  
    1016A      6.241065  1017A      6.253747  1018A      6.259790  
    1019A      6.285074  1020A      6.299376  1021A      6.318706  
    1022A      6.332852  1023A      6.354889  1024A      6.366754  
    1025A      6.376355  1026A      6.377102  1027A      6.419547  
    1028A      6.455861  1029A      6.541927  1030A      6.550635  
    1031A      6.559196  1032A      6.573245  1033A      6.593049  
    1034A      6.653975  1035A      6.688954  1036A      6.702282  
    1037A      6.746524  1038A      6.751294  1039A      6.769201  
    1040A      6.813077  1041A      6.854939  1042A      6.881382  
    1043A      6.899717  1044A      6.944571  1045A      6.954474  
    1046A      6.966009  1047A      6.975922  1048A      6.993257  
    1049A      7.024284  1050A      7.025788  1051A      7.086959  
    1052A      7.102813  1053A      7.107012  1054A      7.134250  
    1055A      7.160189  1056A      7.206695  1057A      7.267551  
    1058A      7.328802  1059A      7.352786  1060A      7.580469  
    1061A      7.610994  1062A      7.714046  1063A      7.870668  
    1064A      7.898099  1065A      8.047274  1066A      8.154269  
    1067A     15.997902  1068A     16.271021  1069A     17.133039  
    1070A     17.545498  1071A     18.060924  1072A     18.377750  
    1073A     18.765700  1074A     18.922290  1075A     19.043930  
    1076A     19.597349  1077A     19.874879  1078A     20.144264  
    1079A     20.845941  1080A     21.320033  1081A     22.402796  

    Final Occupation by Irrep:
              A 
    DOCC [    55 ]

  @DF-RHF Final Energy:  -631.72422134923977

   => Energetics <=

    Nuclear Repulsion Energy =            999.4289888366635068
    One-Electron Energy =               -2842.0317616364081914
    Two-Electron Energy =                1210.8785514505050287
    Total Energy =                       -631.7242213492397696

Computation Completed

*** tstop() called on c418-134.stampede2.tacc.utexas.edu at Sun Mar  7 17:57:53 2021
Module time:
	user time   =    2556.78 seconds =      42.61 minutes
	system time =     152.42 seconds =       2.54 minutes
	total time  =        119 seconds =       1.98 minutes
Total time:
	user time   =    2556.78 seconds =      42.61 minutes
	system time =     152.42 seconds =       2.54 minutes
	total time  =        119 seconds =       1.98 minutes
   => Loading Basis Set <=

    Name: (AUG-CC-PVTZ AUX)
    Role: RIFIT
    Keyword: DF_BASIS_MP2
    atoms 1     entry O          line   264 file /home1/07844/xy3866/miniconda3/envs/p4env/share/psi4/basis/aug-cc-pvtz-ri.gbs 
    atoms 2     entry N          line   206 file /home1/07844/xy3866/miniconda3/envs/p4env/share/psi4/basis/aug-cc-pvtz-ri.gbs 
    atoms 3-15  entry C          line   148 file /home1/07844/xy3866/miniconda3/envs/p4env/share/psi4/basis/aug-cc-pvtz-ri.gbs 
    atoms 16-32 entry H          line    30 file /home1/07844/xy3866/miniconda3/envs/p4env/share/psi4/basis/aug-cc-pvtz-ri.gbs 


*** tstart() called on c418-134.stampede2.tacc.utexas.edu
*** at Sun Mar  7 17:57:54 2021


  //>>>>>>>>>>>>>>>>>>>>>>>>>>>>>>>>>>>//
  //               DFMP2               //
  //<<<<<<<<<<<<<<<<<<<<<<<<<<<<<<<<<<<//

	 --------------------------------------------------------
	                          DF-MP2                         
	      2nd-Order Density-Fitted Moller-Plesset Theory     
	              RMP2 Wavefunction,  32 Threads             
	                                                         
	        Rob Parrish, Justin Turney, Andy Simmonett,      
	           Ed Hohenstein, and C. David Sherrill          
	 --------------------------------------------------------

   => Auxiliary Basis Set <=

  Basis Set: (AUG-CC-PVTZ AUX)
    Blend: AUG-CC-PVTZ-RI
    Number of shells: 658
    Number of basis functions: 2372
    Number of Cartesian functions: 2975
    Spherical Harmonics?: true
    Max angular momentum: 4

	 --------------------------------------------------------
	                 NBF =  1081, NAUX =  2372
	 --------------------------------------------------------
	   CLASS    FOCC     OCC    AOCC    AVIR     VIR    FVIR
	   PAIRS       0      55      55    1026    1026       0
	 --------------------------------------------------------

  DFHelper Memory: AOs need 18.693 GiB; user supplied 22.352 GiB. Using in-core AOs.


         ------------------------------------------------------------
                                     CPHF                           
                                  Rob Parrish                       
         ------------------------------------------------------------

  ==> Geometry <==

    Molecular point group: c1
    Full point group: C1

    Geometry (in Angstrom), charge = 0, multiplicity = 1:

       Center              X                  Y                   Z               Mass       
    ------------   -----------------  -----------------  -----------------  -----------------
         O            0.056497619511     1.936740561755    -1.184198849810    15.994914619570
         N            1.256062619511     0.449117561755     0.084349150190    14.003074004430
         C            3.727170619511    -0.964730438245     0.431950150190    12.000000000000
         C            3.579789619511     0.155542561755    -0.598371849810    12.000000000000
         C            2.379123619511    -1.631787438245     0.708546150190    12.000000000000
         C            2.509769619511     1.153945561755    -0.166432849810    12.000000000000
         C            1.337042619511    -0.589768438245     1.105233150190    12.000000000000
         C            0.098294619511     0.915085561755    -0.485079849810    12.000000000000
         C           -1.135256380489     0.088304561755    -0.269921849810    12.000000000000
         C           -2.236826380489     0.641899561755     0.408180150190    12.000000000000
         C           -1.216710380489    -1.185416438245    -0.845876849810    12.000000000000
         C           -3.399850380489    -0.129118438245     0.512636150190    12.000000000000
         C           -2.161014380489     2.023104561755     1.005648150190    12.000000000000
         C           -2.391081380489    -1.931947438245    -0.742848849810    12.000000000000
         C           -3.484893380489    -1.401248438245    -0.058215849810    12.000000000000
         H            4.458664619511    -1.706573438245     0.091851150190     1.007825032230
         H            4.116572619511    -0.543038438245     1.368941150190     1.007825032230
         H            4.533392619511     0.678215561755    -0.740634849810     1.007825032230
         H            3.291331619511    -0.266691438245    -1.568685849810     1.007825032230
         H            2.028764619511    -2.153559438245    -0.190556849810     1.007825032230
         H            2.472314619511    -2.378943438245     1.506178150190     1.007825032230
         H            2.822443619511     1.671036561755     0.753854150190     1.007825032230
         H            2.312757619511     1.908308561755    -0.929352849810     1.007825032230
         H            0.352522619511    -1.038089438245     1.241744150190     1.007825032230
         H            1.655478919511    -0.079842338245     2.145925350190     1.007825032230
         H           -0.357607380489    -1.583792438245    -1.383347849810     1.007825032230
         H           -4.258799380489     0.279143561755     1.042774150190     1.007825032230
         H           -1.979761380489     2.767787561755     0.226868150190     1.007825032230
         H           -3.091291380489     2.268885561755     1.524909150190     1.007825032230
         H           -1.338907380489     2.099912561755     1.725398150190     1.007825032230
         H           -2.452142380489    -2.917916438245    -1.197382849810     1.007825032230
         H           -4.404356380489    -1.975011438245     0.031963150190     1.007825032230

  Nuclear repulsion =  999.428988836663507
  Reference energy  = -631.724221349239770

  ==> Basis Set <==

  Basis Set: AUG-CC-PVTZ
    Blend: AUG-CC-PVTZ
    Number of shells: 363
    Number of basis functions: 1081
    Number of Cartesian functions: 1250
    Spherical Harmonics?: true
    Max angular momentum: 3

  ==> CGRSolver (by Rob Parrish) <==

   Number of roots    =         1
   Preconditioning    =    JACOBI
   Convergence cutoff =     1E-06
   Maximum iterations =       100

  ==> CPHFRHamiltonian (by Rob Parrish) <== 

  ==> MemDFJK: Density-Fitted J/K Matrices <==

    J tasked:                   Yes
    K tasked:                   Yes
    wK tasked:                   No
    OpenMP threads:              32
    Memory [MiB]:             22888
    Algorithm:                 Core
    Schwarz Cutoff:           1E-12
    Mask sparsity (%):      11.0440
    Fitting Condition:        1E-10

   => Auxiliary Basis Set <=

  Basis Set: (AUG-CC-PVTZ AUX)
    Blend: AUG-CC-PVTZ-JKFIT
    Number of shells: 688
    Number of basis functions: 2342
    Number of Cartesian functions: 2900
    Spherical Harmonics?: true
    Max angular momentum: 4

  ==> CPHF Iterations <==

  => Iterations <=

             Iter  Converged  Remaining    Residual
  CGR           1          0          1   1.134E-01
  CGR           2          0          1   3.382E-02
  CGR           3          0          1   1.436E-02
  CGR           4          0          1   5.433E-03
  CGR           5          0          1   2.504E-03
  CGR           6          0          1   1.294E-03
  CGR           7          0          1   4.766E-04
  CGR           8          0          1   1.805E-04
  CGR           9          0          1   5.705E-05
  CGR          10          0          1   1.849E-05
  CGR          11          0          1   8.036E-06
  CGR          12          0          1   2.844E-06
  CGR          13          0          1   1.208E-06
  CGR          14          1          0   4.165E-07

    CGRSolver converged.

	-----------------------------------------------------------
	 ==================> DF-MP2 Energies <==================== 
	-----------------------------------------------------------
	 Reference Energy          =    -631.7242213492397696 [Eh]
	 Singles Energy            =      -0.0000000000000000 [Eh]
	 Same-Spin Energy          =      -0.6891840738149114 [Eh]
	 Opposite-Spin Energy      =      -2.2131011629193305 [Eh]
	 Correlation Energy        =      -2.9022852367342420 [Eh]
	 Total Energy              =    -634.6265065859739707 [Eh]
	-----------------------------------------------------------
	 ================> DF-SCS-MP2 Energies <================== 
	-----------------------------------------------------------
	 SCS Same-Spin Scale       =       0.3333333333333333 [-]
	 SCS Opposite-Spin Scale   =       1.2000000000000000 [-]
	 SCS Same-Spin Energy      =      -0.2297280246049705 [Eh]
	 SCS Opposite-Spin Energy  =      -2.6557213955031966 [Eh]
	 SCS Correlation Energy    =      -2.8854494201081673 [Eh]
	 SCS Total Energy          =    -634.6096707693479857 [Eh]
	-----------------------------------------------------------



Properties will be evaluated at  -0.000000,   0.000000,  -0.000000 [a0]

Properties computed using the MP2 density matrix

  Nuclear Dipole Moment: [e a0]
     X:     9.5226      Y:    -2.7764      Z:     5.2912

  Electronic Dipole Moment: [e a0]
     X:    -8.9878      Y:     1.7834      Z:    -4.4238

  Dipole Moment: [e a0]
     X:     0.5348      Y:    -0.9930      Z:     0.8674     Total:     1.4228

  Dipole Moment: [D]
     X:     1.3592      Y:    -2.5240      Z:     2.2046     Total:     3.6164


*** tstop() called on c418-134.stampede2.tacc.utexas.edu at Sun Mar  7 18:09:55 2021
Module time:
	user time   =    9160.45 seconds =     152.67 minutes
	system time =     190.49 seconds =       3.17 minutes
	total time  =        721 seconds =      12.02 minutes
Total time:
	user time   =   11718.84 seconds =     195.31 minutes
	system time =     342.94 seconds =       5.72 minutes
	total time  =        841 seconds =      14.02 minutes

    Psi4 stopped on: Sunday, 07 March 2021 06:09PM
    Psi4 wall time for execution: 0:14:04.32

*** Psi4 exiting successfully. Buy a developer a beer!
