904                                                                     
Freq      RMP2-FC                                                     6-31G(d)            
Number of atoms                            I               19
Info1-9                                    I   N=           9
          31          29        1002           0           0         100
           6           2           1
Charge                                     I                0
Multiplicity                               I                1
Number of electrons                        I               72
Number of alpha electrons                  I               36
Number of beta electrons                   I               36
Number of basis functions                  I              168
Number of independent functions            I              168
Number of point charges in /Mol/           I                0
Number of translation vectors              I                0
Atomic numbers                             I   N=          19
           8           7           6           6           6           6
           6           6           6           6           1           1
           1           1           1           1           1           1
           1
Nuclear charges                            R   N=          19
  8.00000000E+00  7.00000000E+00  6.00000000E+00  6.00000000E+00  6.00000000E+00
  6.00000000E+00  6.00000000E+00  6.00000000E+00  6.00000000E+00  6.00000000E+00
  1.00000000E+00  1.00000000E+00  1.00000000E+00  1.00000000E+00  1.00000000E+00
  1.00000000E+00  1.00000000E+00  1.00000000E+00  1.00000000E+00
Current cartesian coordinates              R   N=          57
  4.02727423E+00  2.63704402E+00 -3.33742550E-02  2.00830808E+00 -1.22542345E+00
 -4.62501699E-02 -5.68904755E-01 -5.42414135E-01 -2.10537643E-02 -1.41013016E+00
  1.97115514E+00 -1.52900876E-03 -2.33494940E+00 -2.52046070E+00 -1.80779320E-02
 -4.00385923E+00  2.45353881E+00  2.30325880E-02 -4.91474468E+00 -2.00442689E+00
  6.59658801E-03 -5.76671635E+00  4.92983553E-01  2.71589289E-02  4.10825732E+00
  3.12511259E-01 -3.45099194E-02  6.58459819E+00 -1.12834121E+00  6.38102788E-02
 -5.02311363E-02  3.49687315E+00 -5.87104295E-03 -1.68210536E+00 -4.47321294E+00
 -3.37830933E-02  2.34339239E+00 -3.11104945E+00 -5.18768737E-02 -4.64407355E+00
  4.40628373E+00  3.82808967E-02 -6.25655233E+00 -3.56056399E+00  9.13687200E-03
 -7.77900170E+00  9.02889531E-01  4.59586968E-02  7.01807853E+00 -1.63947369E+00
  2.02031286E+00  8.07495292E+00  1.09057813E-01 -6.35494020E-01  6.53788419E+00
 -2.85646709E+00 -1.06848562E+00
Force Field                                I                0
Int Atom Types                             I   N=          19
           0           0           0           0           0           0
           0           0           0           0           0           0
           0           0           0           0           0           0
           0
MM charges                                 R   N=          19
  0.00000000E+00  0.00000000E+00  0.00000000E+00  0.00000000E+00  0.00000000E+00
  0.00000000E+00  0.00000000E+00  0.00000000E+00  0.00000000E+00  0.00000000E+00
  0.00000000E+00  0.00000000E+00  0.00000000E+00  0.00000000E+00  0.00000000E+00
  0.00000000E+00  0.00000000E+00  0.00000000E+00  0.00000000E+00
Integer atomic weights                     I   N=          19
          16          14          12          12          12          12
          12          12          12          12           1           1
           1           1           1           1           1           1
           1
Real atomic weights                        R   N=          19
  1.59949146E+01  1.40030740E+01  1.20000000E+01  1.20000000E+01  1.20000000E+01
  1.20000000E+01  1.20000000E+01  1.20000000E+01  1.20000000E+01  1.20000000E+01
  1.00782504E+00  1.00782504E+00  1.00782504E+00  1.00782504E+00  1.00782504E+00
  1.00782504E+00  1.00782504E+00  1.00782504E+00  1.00782504E+00
Atom fragment info                         I   N=          19
           0           0           0           0           0           0
           0           0           0           0           0           0
           0           0           0           0           0           0
           0
Atom residue num                           I   N=          19
           0           0           0           0           0           0
           0           0           0           0           0           0
           0           0           0           0           0           0
           0
Nuclear spins                              I   N=          19
           0           2           0           0           0           0
           0           0           0           0           1           1
           1           1           1           1           1           1
           1
Nuclear ZEff                               R   N=          19
 -5.60000000E+00 -4.55000000E+00 -3.60000000E+00 -3.60000000E+00 -3.60000000E+00
 -3.60000000E+00 -3.60000000E+00 -3.60000000E+00 -3.60000000E+00 -3.60000000E+00
 -1.00000000E+00 -1.00000000E+00 -1.00000000E+00 -1.00000000E+00 -1.00000000E+00
 -1.00000000E+00 -1.00000000E+00 -1.00000000E+00 -1.00000000E+00
Nuclear QMom                               R   N=          19
  0.00000000E+00  2.04400000E+00  0.00000000E+00  0.00000000E+00  0.00000000E+00
  0.00000000E+00  0.00000000E+00  0.00000000E+00  0.00000000E+00  0.00000000E+00
  0.00000000E+00  0.00000000E+00  0.00000000E+00  0.00000000E+00  0.00000000E+00
  0.00000000E+00  0.00000000E+00  0.00000000E+00  0.00000000E+00
Nuclear GFac                               R   N=          19
  0.00000000E+00  4.03761000E-01  0.00000000E+00  0.00000000E+00  0.00000000E+00
  0.00000000E+00  0.00000000E+00  0.00000000E+00  0.00000000E+00  0.00000000E+00
  2.79284600E+00  2.79284600E+00  2.79284600E+00  2.79284600E+00  2.79284600E+00
  2.79284600E+00  2.79284600E+00  2.79284600E+00  2.79284600E+00
MicOpt                                     I   N=          19
          -1          -1          -1          -1          -1          -1
          -1          -1          -1          -1          -1          -1
          -1          -1          -1          -1          -1          -1
          -1
Number of contracted shells                I               58
Number of primitive shells                 I              146
Pure/Cartesian d shells                    I                1
Pure/Cartesian f shells                    I                0
Highest angular momentum                   I                2
Largest degree of contraction              I                6
Shell types                                I   N=          58
           0          -1          -1           2           0          -1
          -1           2           0          -1          -1           2
           0          -1          -1           2           0          -1
          -1           2           0          -1          -1           2
           0          -1          -1           2           0          -1
          -1           2           0          -1          -1           2
           0          -1          -1           2           0           0
           0           0           0           0           0           0
           0           0           0           0           0           0
           0           0           0           0
Number of primitives per shell             I   N=          58
           6           3           1           1           6           3
           1           1           6           3           1           1
           6           3           1           1           6           3
           1           1           6           3           1           1
           6           3           1           1           6           3
           1           1           6           3           1           1
           6           3           1           1           3           1
           3           1           3           1           3           1
           3           1           3           1           3           1
           3           1           3           1
Shell to atom map                          I   N=          58
           1           1           1           1           2           2
           2           2           3           3           3           3
           4           4           4           4           5           5
           5           5           6           6           6           6
           7           7           7           7           8           8
           8           8           9           9           9           9
          10          10          10          10          11          11
          12          12          13          13          14          14
          15          15          16          16          17          17
          18          18          19          19
Primitive exponents                        R   N=         146
  5.48467166E+03  8.25234946E+02  1.88046958E+02  5.29645000E+01  1.68975704E+01
  5.79963534E+00  1.55396162E+01  3.59993359E+00  1.01376175E+00  2.70005823E-01
  8.00000000E-01  4.17351146E+03  6.27457911E+02  1.42902093E+02  4.02343293E+01
  1.28202129E+01  4.39043701E+00  1.16263619E+01  2.71627981E+00  7.72218397E-01
  2.12031498E-01  8.00000000E-01  3.04752488E+03  4.57369518E+02  1.03948685E+02
  2.92101553E+01  9.28666296E+00  3.16392696E+00  7.86827235E+00  1.88128854E+00
  5.44249258E-01  1.68714478E-01  8.00000000E-01  3.04752488E+03  4.57369518E+02
  1.03948685E+02  2.92101553E+01  9.28666296E+00  3.16392696E+00  7.86827235E+00
  1.88128854E+00  5.44249258E-01  1.68714478E-01  8.00000000E-01  3.04752488E+03
  4.57369518E+02  1.03948685E+02  2.92101553E+01  9.28666296E+00  3.16392696E+00
  7.86827235E+00  1.88128854E+00  5.44249258E-01  1.68714478E-01  8.00000000E-01
  3.04752488E+03  4.57369518E+02  1.03948685E+02  2.92101553E+01  9.28666296E+00
  3.16392696E+00  7.86827235E+00  1.88128854E+00  5.44249258E-01  1.68714478E-01
  8.00000000E-01  3.04752488E+03  4.57369518E+02  1.03948685E+02  2.92101553E+01
  9.28666296E+00  3.16392696E+00  7.86827235E+00  1.88128854E+00  5.44249258E-01
  1.68714478E-01  8.00000000E-01  3.04752488E+03  4.57369518E+02  1.03948685E+02
  2.92101553E+01  9.28666296E+00  3.16392696E+00  7.86827235E+00  1.88128854E+00
  5.44249258E-01  1.68714478E-01  8.00000000E-01  3.04752488E+03  4.57369518E+02
  1.03948685E+02  2.92101553E+01  9.28666296E+00  3.16392696E+00  7.86827235E+00
  1.88128854E+00  5.44249258E-01  1.68714478E-01  8.00000000E-01  3.04752488E+03
  4.57369518E+02  1.03948685E+02  2.92101553E+01  9.28666296E+00  3.16392696E+00
  7.86827235E+00  1.88128854E+00  5.44249258E-01  1.68714478E-01  8.00000000E-01
  1.87311370E+01  2.82539436E+00  6.40121692E-01  1.61277759E-01  1.87311370E+01
  2.82539436E+00  6.40121692E-01  1.61277759E-01  1.87311370E+01  2.82539436E+00
  6.40121692E-01  1.61277759E-01  1.87311370E+01  2.82539436E+00  6.40121692E-01
  1.61277759E-01  1.87311370E+01  2.82539436E+00  6.40121692E-01  1.61277759E-01
  1.87311370E+01  2.82539436E+00  6.40121692E-01  1.61277759E-01  1.87311370E+01
  2.82539436E+00  6.40121692E-01  1.61277759E-01  1.87311370E+01  2.82539436E+00
  6.40121692E-01  1.61277759E-01  1.87311370E+01  2.82539436E+00  6.40121692E-01
  1.61277759E-01
Contraction coefficients                   R   N=         146
  1.83107443E-03  1.39501722E-02  6.84450781E-02  2.32714336E-01  4.70192898E-01
  3.58520853E-01 -1.10777550E-01 -1.48026263E-01  1.13076702E+00  1.00000000E+00
  1.00000000E+00  1.83477216E-03  1.39946270E-02  6.85865518E-02  2.32240873E-01
  4.69069948E-01  3.60455199E-01 -1.14961182E-01 -1.69117479E-01  1.14585195E+00
  1.00000000E+00  1.00000000E+00  1.83473713E-03  1.40373228E-02  6.88426223E-02
  2.32184443E-01  4.67941348E-01  3.62311985E-01 -1.19332420E-01 -1.60854152E-01
  1.14345644E+00  1.00000000E+00  1.00000000E+00  1.83473713E-03  1.40373228E-02
  6.88426223E-02  2.32184443E-01  4.67941348E-01  3.62311985E-01 -1.19332420E-01
 -1.60854152E-01  1.14345644E+00  1.00000000E+00  1.00000000E+00  1.83473713E-03
  1.40373228E-02  6.88426223E-02  2.32184443E-01  4.67941348E-01  3.62311985E-01
 -1.19332420E-01 -1.60854152E-01  1.14345644E+00  1.00000000E+00  1.00000000E+00
  1.83473713E-03  1.40373228E-02  6.88426223E-02  2.32184443E-01  4.67941348E-01
  3.62311985E-01 -1.19332420E-01 -1.60854152E-01  1.14345644E+00  1.00000000E+00
  1.00000000E+00  1.83473713E-03  1.40373228E-02  6.88426223E-02  2.32184443E-01
  4.67941348E-01  3.62311985E-01 -1.19332420E-01 -1.60854152E-01  1.14345644E+00
  1.00000000E+00  1.00000000E+00  1.83473713E-03  1.40373228E-02  6.88426223E-02
  2.32184443E-01  4.67941348E-01  3.62311985E-01 -1.19332420E-01 -1.60854152E-01
  1.14345644E+00  1.00000000E+00  1.00000000E+00  1.83473713E-03  1.40373228E-02
  6.88426223E-02  2.32184443E-01  4.67941348E-01  3.62311985E-01 -1.19332420E-01
 -1.60854152E-01  1.14345644E+00  1.00000000E+00  1.00000000E+00  1.83473713E-03
  1.40373228E-02  6.88426223E-02  2.32184443E-01  4.67941348E-01  3.62311985E-01
 -1.19332420E-01 -1.60854152E-01  1.14345644E+00  1.00000000E+00  1.00000000E+00
  3.34946043E-02  2.34726953E-01  8.13757326E-01  1.00000000E+00  3.34946043E-02
  2.34726953E-01  8.13757326E-01  1.00000000E+00  3.34946043E-02  2.34726953E-01
  8.13757326E-01  1.00000000E+00  3.34946043E-02  2.34726953E-01  8.13757326E-01
  1.00000000E+00  3.34946043E-02  2.34726953E-01  8.13757326E-01  1.00000000E+00
  3.34946043E-02  2.34726953E-01  8.13757326E-01  1.00000000E+00  3.34946043E-02
  2.34726953E-01  8.13757326E-01  1.00000000E+00  3.34946043E-02  2.34726953E-01
  8.13757326E-01  1.00000000E+00  3.34946043E-02  2.34726953E-01  8.13757326E-01
  1.00000000E+00
P(S=P) Contraction coefficients            R   N=         146
  0.00000000E+00  0.00000000E+00  0.00000000E+00  0.00000000E+00  0.00000000E+00
  0.00000000E+00  7.08742682E-02  3.39752839E-01  7.27158577E-01  1.00000000E+00
  0.00000000E+00  0.00000000E+00  0.00000000E+00  0.00000000E+00  0.00000000E+00
  0.00000000E+00  0.00000000E+00  6.75797439E-02  3.23907296E-01  7.40895140E-01
  1.00000000E+00  0.00000000E+00  0.00000000E+00  0.00000000E+00  0.00000000E+00
  0.00000000E+00  0.00000000E+00  0.00000000E+00  6.89990666E-02  3.16423961E-01
  7.44308291E-01  1.00000000E+00  0.00000000E+00  0.00000000E+00  0.00000000E+00
  0.00000000E+00  0.00000000E+00  0.00000000E+00  0.00000000E+00  6.89990666E-02
  3.16423961E-01  7.44308291E-01  1.00000000E+00  0.00000000E+00  0.00000000E+00
  0.00000000E+00  0.00000000E+00  0.00000000E+00  0.00000000E+00  0.00000000E+00
  6.89990666E-02  3.16423961E-01  7.44308291E-01  1.00000000E+00  0.00000000E+00
  0.00000000E+00  0.00000000E+00  0.00000000E+00  0.00000000E+00  0.00000000E+00
  0.00000000E+00  6.89990666E-02  3.16423961E-01  7.44308291E-01  1.00000000E+00
  0.00000000E+00  0.00000000E+00  0.00000000E+00  0.00000000E+00  0.00000000E+00
  0.00000000E+00  0.00000000E+00  6.89990666E-02  3.16423961E-01  7.44308291E-01
  1.00000000E+00  0.00000000E+00  0.00000000E+00  0.00000000E+00  0.00000000E+00
  0.00000000E+00  0.00000000E+00  0.00000000E+00  6.89990666E-02  3.16423961E-01
  7.44308291E-01  1.00000000E+00  0.00000000E+00  0.00000000E+00  0.00000000E+00
  0.00000000E+00  0.00000000E+00  0.00000000E+00  0.00000000E+00  6.89990666E-02
  3.16423961E-01  7.44308291E-01  1.00000000E+00  0.00000000E+00  0.00000000E+00
  0.00000000E+00  0.00000000E+00  0.00000000E+00  0.00000000E+00  0.00000000E+00
  6.89990666E-02  3.16423961E-01  7.44308291E-01  1.00000000E+00  0.00000000E+00
  0.00000000E+00  0.00000000E+00  0.00000000E+00  0.00000000E+00  0.00000000E+00
  0.00000000E+00  0.00000000E+00  0.00000000E+00  0.00000000E+00  0.00000000E+00
  0.00000000E+00  0.00000000E+00  0.00000000E+00  0.00000000E+00  0.00000000E+00
  0.00000000E+00  0.00000000E+00  0.00000000E+00  0.00000000E+00  0.00000000E+00
  0.00000000E+00  0.00000000E+00  0.00000000E+00  0.00000000E+00  0.00000000E+00
  0.00000000E+00  0.00000000E+00  0.00000000E+00  0.00000000E+00  0.00000000E+00
  0.00000000E+00  0.00000000E+00  0.00000000E+00  0.00000000E+00  0.00000000E+00
  0.00000000E+00
Coordinates of each shell                  R   N=         174
  4.02727423E+00  2.63704402E+00 -3.33742550E-02  4.02727423E+00  2.63704402E+00
 -3.33742550E-02  4.02727423E+00  2.63704402E+00 -3.33742550E-02  4.02727423E+00
  2.63704402E+00 -3.33742550E-02  2.00830808E+00 -1.22542345E+00 -4.62501699E-02
  2.00830808E+00 -1.22542345E+00 -4.62501699E-02  2.00830808E+00 -1.22542345E+00
 -4.62501699E-02  2.00830808E+00 -1.22542345E+00 -4.62501699E-02 -5.68904755E-01
 -5.42414135E-01 -2.10537643E-02 -5.68904755E-01 -5.42414135E-01 -2.10537643E-02
 -5.68904755E-01 -5.42414135E-01 -2.10537643E-02 -5.68904755E-01 -5.42414135E-01
 -2.10537643E-02 -1.41013016E+00  1.97115514E+00 -1.52900876E-03 -1.41013016E+00
  1.97115514E+00 -1.52900876E-03 -1.41013016E+00  1.97115514E+00 -1.52900876E-03
 -1.41013016E+00  1.97115514E+00 -1.52900876E-03 -2.33494940E+00 -2.52046070E+00
 -1.80779320E-02 -2.33494940E+00 -2.52046070E+00 -1.80779320E-02 -2.33494940E+00
 -2.52046070E+00 -1.80779320E-02 -2.33494940E+00 -2.52046070E+00 -1.80779320E-02
 -4.00385923E+00  2.45353881E+00  2.30325880E-02 -4.00385923E+00  2.45353881E+00
  2.30325880E-02 -4.00385923E+00  2.45353881E+00  2.30325880E-02 -4.00385923E+00
  2.45353881E+00  2.30325880E-02 -4.91474468E+00 -2.00442689E+00  6.59658801E-03
 -4.91474468E+00 -2.00442689E+00  6.59658801E-03 -4.91474468E+00 -2.00442689E+00
  6.59658801E-03 -4.91474468E+00 -2.00442689E+00  6.59658801E-03 -5.76671635E+00
  4.92983553E-01  2.71589289E-02 -5.76671635E+00  4.92983553E-01  2.71589289E-02
 -5.76671635E+00  4.92983553E-01  2.71589289E-02 -5.76671635E+00  4.92983553E-01
  2.71589289E-02  4.10825732E+00  3.12511259E-01 -3.45099194E-02  4.10825732E+00
  3.12511259E-01 -3.45099194E-02  4.10825732E+00  3.12511259E-01 -3.45099194E-02
  4.10825732E+00  3.12511259E-01 -3.45099194E-02  6.58459819E+00 -1.12834121E+00
  6.38102788E-02  6.58459819E+00 -1.12834121E+00  6.38102788E-02  6.58459819E+00
 -1.12834121E+00  6.38102788E-02  6.58459819E+00 -1.12834121E+00  6.38102788E-02
 -5.02311363E-02  3.49687315E+00 -5.87104295E-03 -5.02311363E-02  3.49687315E+00
 -5.87104295E-03 -1.68210536E+00 -4.47321294E+00 -3.37830933E-02 -1.68210536E+00
 -4.47321294E+00 -3.37830933E-02  2.34339239E+00 -3.11104945E+00 -5.18768737E-02
  2.34339239E+00 -3.11104945E+00 -5.18768737E-02 -4.64407355E+00  4.40628373E+00
  3.82808967E-02 -4.64407355E+00  4.40628373E+00  3.82808967E-02 -6.25655233E+00
 -3.56056399E+00  9.13687200E-03 -6.25655233E+00 -3.56056399E+00  9.13687200E-03
 -7.77900170E+00  9.02889531E-01  4.59586968E-02 -7.77900170E+00  9.02889531E-01
  4.59586968E-02  7.01807853E+00 -1.63947369E+00  2.02031286E+00  7.01807853E+00
 -1.63947369E+00  2.02031286E+00  8.07495292E+00  1.09057813E-01 -6.35494020E-01
  8.07495292E+00  1.09057813E-01 -6.35494020E-01  6.53788419E+00 -2.85646709E+00
 -1.06848562E+00  6.53788419E+00 -2.85646709E+00 -1.06848562E+00
Constraint Structure                       R   N=          57
  4.02727423E+00  2.63704402E+00 -3.33742550E-02  2.00830808E+00 -1.22542345E+00
 -4.62501699E-02 -5.68904755E-01 -5.42414135E-01 -2.10537643E-02 -1.41013016E+00
  1.97115514E+00 -1.52900876E-03 -2.33494940E+00 -2.52046070E+00 -1.80779320E-02
 -4.00385923E+00  2.45353881E+00  2.30325880E-02 -4.91474468E+00 -2.00442689E+00
  6.59658801E-03 -5.76671635E+00  4.92983553E-01  2.71589289E-02  4.10825732E+00
  3.12511259E-01 -3.45099194E-02  6.58459819E+00 -1.12834121E+00  6.38102788E-02
 -5.02311363E-02  3.49687315E+00 -5.87104295E-03 -1.68210536E+00 -4.47321294E+00
 -3.37830933E-02  2.34339239E+00 -3.11104945E+00 -5.18768737E-02 -4.64407355E+00
  4.40628373E+00  3.82808967E-02 -6.25655233E+00 -3.56056399E+00  9.13687200E-03
 -7.77900170E+00  9.02889531E-01  4.59586968E-02  7.01807853E+00 -1.63947369E+00
  2.02031286E+00  8.07495292E+00  1.09057813E-01 -6.35494020E-01  6.53788419E+00
 -2.85646709E+00 -1.06848562E+00
Num ILSW                                   I              100
ILSW                                       I   N=         100
           0           1           0           0           2           0
           0           0           0           0           0          -1
           0           0           0           0           0           0
           0           0           0           0           1           0
           1           0           0           0           0           0
           0           0      100000           0          -1           0
           0           0           0           0           0           0
           0           0           0           1           1           0
           0           0           1           0           0           0
           0           0           4          40           0           0
           0           0           0           0           0           0
           0           0           0           0           0           0
           0           0           0           0           0           0
           0           0           0           0           0           0
           0           0           0           0           0           0
           0           0           0           0           0           0
           0           0           0           0
Num RLSW                                   I               40
RLSW                                       R   N=          40
  1.00000000E+00  1.00000000E+00  1.00000000E+00  1.00000000E+00  1.00000000E+00
  0.00000000E+00  0.00000000E+00  1.00000000E+00  0.00000000E+00  0.00000000E+00
  0.00000000E+00  0.00000000E+00  1.00000000E+00  0.00000000E+00  0.00000000E+00
  0.00000000E+00  0.00000000E+00  1.00000000E+00  0.00000000E+00  0.00000000E+00
  0.00000000E+00  0.00000000E+00  1.00000000E+00  0.00000000E+00  0.00000000E+00
  0.00000000E+00  0.00000000E+00  1.00000000E+00  0.00000000E+00  0.00000000E+00
  0.00000000E+00  0.00000000E+00  0.00000000E+00  0.00000000E+00  0.00000000E+00
  0.00000000E+00  0.00000000E+00  0.00000000E+00  1.00000000E+00  1.00000000E+00
MxBond                                     I                4
NBond                                      I   N=          19
           1           3           3           3           3           3
           3           3           3           4           1           1
           1           1           1           1           1           1
           1
IBond                                      I   N=          76
           9           0           0           0           3           9
          13           0           2           4           5           0
           3           6          11           0           3           7
          12           0           4           8          14           0
           5           8          15           0           6           7
          16           0           1           2          10           0
           9          17          18          19           4           0
           0           0           5           0           0           0
           2           0           0           0           6           0
           0           0           7           0           0           0
           8           0           0           0          10           0
           0           0          10           0           0           0
          10           0           0           0
RBond                                      R   N=          76
  2.00000000E+00  0.00000000E+00  0.00000000E+00  0.00000000E+00  1.00000000E+00
  1.00000000E+00  1.00000000E+00  0.00000000E+00  1.00000000E+00  1.50000000E+00
  1.50000000E+00  0.00000000E+00  1.50000000E+00  1.50000000E+00  1.00000000E+00
  0.00000000E+00  1.50000000E+00  1.50000000E+00  1.00000000E+00  0.00000000E+00
  1.50000000E+00  1.50000000E+00  1.00000000E+00  0.00000000E+00  1.50000000E+00
  1.50000000E+00  1.00000000E+00  0.00000000E+00  1.50000000E+00  1.50000000E+00
  1.00000000E+00  0.00000000E+00  2.00000000E+00  1.00000000E+00  1.00000000E+00
  0.00000000E+00  1.00000000E+00  1.00000000E+00  1.00000000E+00  1.00000000E+00
  1.00000000E+00  0.00000000E+00  0.00000000E+00  0.00000000E+00  1.00000000E+00
  0.00000000E+00  0.00000000E+00  0.00000000E+00  1.00000000E+00  0.00000000E+00
  0.00000000E+00  0.00000000E+00  1.00000000E+00  0.00000000E+00  0.00000000E+00
  0.00000000E+00  1.00000000E+00  0.00000000E+00  0.00000000E+00  0.00000000E+00
  1.00000000E+00  0.00000000E+00  0.00000000E+00  0.00000000E+00  1.00000000E+00
  0.00000000E+00  0.00000000E+00  0.00000000E+00  1.00000000E+00  0.00000000E+00
  0.00000000E+00  0.00000000E+00  1.00000000E+00  0.00000000E+00  0.00000000E+00
  0.00000000E+00
Virial Ratio                               R      2.002506165784161E+00
SCF Energy                                 R     -4.375160378904139E+02
MP2 Energy                                 R     -4.388684921366795E+02
Total Energy                               R     -4.388684921366795E+02
Post-SCF wavefunction norm                 R      1.711953984865299E+00
RMS Force                                  R      7.870731719773120E-08
RMS Density                                R      2.348852593459863E-09
External E-field                           R   N=          35
  0.00000000E+00  0.00000000E+00  0.00000000E+00  0.00000000E+00  0.00000000E+00
  0.00000000E+00  0.00000000E+00  0.00000000E+00  0.00000000E+00  0.00000000E+00
  0.00000000E+00  0.00000000E+00  0.00000000E+00  0.00000000E+00  0.00000000E+00
  0.00000000E+00  0.00000000E+00  0.00000000E+00  0.00000000E+00  0.00000000E+00
  0.00000000E+00  0.00000000E+00  0.00000000E+00  0.00000000E+00  0.00000000E+00
  0.00000000E+00  0.00000000E+00  0.00000000E+00  0.00000000E+00  0.00000000E+00
  0.00000000E+00  0.00000000E+00  0.00000000E+00  0.00000000E+00  0.00000000E+00
IOpCl                                      I                0
IROHF                                      I                0
Alpha Orbital Energies                     R   N=         168
 -2.05340342E+01 -1.56105836E+01 -1.13669296E+01 -1.12877617E+01 -1.12457110E+01
 -1.12395903E+01 -1.12366558E+01 -1.12348864E+01 -1.12278430E+01 -1.12237948E+01
 -1.37995320E+00 -1.25414673E+00 -1.13737999E+00 -1.03290288E+00 -1.01169556E+00
 -9.81935252E-01 -8.51702545E-01 -8.29847886E-01 -7.74038700E-01 -7.20898204E-01
 -6.76266304E-01 -6.70684823E-01 -6.24883527E-01 -6.10925529E-01 -6.07955379E-01
 -5.85534796E-01 -5.78565889E-01 -5.65114198E-01 -5.52968681E-01 -5.12915069E-01
 -4.95136323E-01 -4.93591362E-01 -4.34661855E-01 -4.20986174E-01 -3.33192900E-01
 -3.02056731E-01  1.37316266E-01  1.43923434E-01  2.02507282E-01  2.11666329E-01
  2.40223622E-01  2.66313573E-01  2.94188815E-01  3.02867047E-01  3.12943847E-01
  3.25644176E-01  3.42196747E-01  3.67995262E-01  3.76977211E-01  3.89359874E-01
  4.31812310E-01  4.69007625E-01  4.78053677E-01  5.09228258E-01  5.26085788E-01
  5.38759351E-01  5.85985795E-01  6.74528795E-01  7.20745201E-01  7.31707484E-01
  7.41479640E-01  7.54667673E-01  7.71213972E-01  7.87394776E-01  8.05449508E-01
  8.12705120E-01  8.17427283E-01  8.28384826E-01  8.30541792E-01  8.39359144E-01
  8.45399864E-01  8.66238809E-01  8.75769538E-01  9.13549169E-01  9.27678455E-01
  9.44901442E-01  9.68853108E-01  1.01096131E+00  1.06810557E+00  1.08578283E+00
  1.09606996E+00  1.11084903E+00  1.11542759E+00  1.12607107E+00  1.13387638E+00
  1.14052138E+00  1.16429679E+00  1.17310144E+00  1.19241299E+00  1.21040326E+00
  1.21445549E+00  1.22959112E+00  1.25621151E+00  1.27586666E+00  1.31833334E+00
  1.33867314E+00  1.36263787E+00  1.41665935E+00  1.43289907E+00  1.50555476E+00
  1.51263727E+00  1.54687114E+00  1.57743449E+00  1.59366370E+00  1.64915762E+00
  1.65552580E+00  1.70215035E+00  1.71406440E+00  1.74045581E+00  1.77120380E+00
  1.78140789E+00  1.78893528E+00  1.79520647E+00  1.83689860E+00  1.92890067E+00
  2.03943432E+00  2.07761588E+00  2.10424298E+00  2.11230072E+00  2.13324725E+00
  2.14898849E+00  2.16097100E+00  2.18407572E+00  2.21186744E+00  2.26707341E+00
  2.28095487E+00  2.31045915E+00  2.35480296E+00  2.37601267E+00  2.42355825E+00
  2.45599177E+00  2.46416251E+00  2.47761092E+00  2.48376575E+00  2.52569076E+00
  2.55607063E+00  2.61738986E+00  2.63826142E+00  2.65284589E+00  2.68502545E+00
  2.69794613E+00  2.76023733E+00  2.78398799E+00  2.86907701E+00  2.92922994E+00
  2.96519080E+00  2.98631117E+00  3.03116198E+00  3.04377817E+00  3.09523047E+00
  3.11284701E+00  3.11839089E+00  3.18728526E+00  3.29559154E+00  3.33530049E+00
  3.39182103E+00  3.66513572E+00  3.80747633E+00  4.44954372E+00  4.51455663E+00
  4.52461591E+00  4.54375395E+00  4.57250581E+00  4.61855888E+00  4.75746069E+00
  4.77888447E+00  4.90666580E+00  5.14803255E+00
Alpha MO coefficients                      R   N=       28224
  9.94682778E-01  2.09639315E-02  3.64356683E-05 -1.53853048E-03  5.98322754E-07
  4.52320390E-03 -9.41621155E-05  1.27883176E-04 -3.47069376E-06 -3.90995346E-03
 -3.69572413E-03 -4.14757828E-03 -1.80952310E-05  1.34576965E-06  1.25709383E-06
 -7.63817214E-06 -4.13977008E-05  1.07348202E-07 -2.77381859E-05  4.70851566E-07
  2.46891288E-04 -1.38201134E-04  3.05220650E-05 -1.41612656E-06  9.67825996E-05
 -8.61408287E-05 -4.46092925E-05 -1.69540541E-05  1.47239694E-07 -4.01899859E-07
 -9.58916594E-06 -3.57786626E-05 -2.29671746E-05  1.43342995E-05  6.38895091E-07
  4.95217815E-04 -4.07804076E-04  3.70443920E-04  5.38371971E-06 -4.45574798E-05
  1.27402109E-07 -1.56459570E-05  1.62616138E-05  8.48270192E-07 -2.49116599E-07
  8.06819453E-07  5.47997002E-06 -4.51156228E-06 -3.21528075E-05  5.60074775E-08
 -2.00624068E-04  9.07662322E-05  6.68144587E-04  2.14955499E-06  2.66124676E-06
 -1.50662204E-05  2.43454050E-06  1.00707209E-05  3.22614901E-08 -2.27268782E-07