
    -----------------------------------------------------------------------
          Psi4: An Open-Source Ab Initio Electronic Structure Package
                               Psi4 1.4a3.dev225 

                         Git: Rev {master} 7105e37 


    D. G. A. Smith, L. A. Burns, A. C. Simmonett, R. M. Parrish,
    M. C. Schieber, R. Galvelis, P. Kraus, H. Kruse, R. Di Remigio,
    A. Alenaizan, A. M. James, S. Lehtola, J. P. Misiewicz, M. Scheurer,
    R. A. Shaw, J. B. Schriber, Y. Xie, Z. L. Glick, D. A. Sirianni,
    J. S. O'Brien, J. M. Waldrop, A. Kumar, E. G. Hohenstein,
    B. P. Pritchard, B. R. Brooks, H. F. Schaefer III, A. Yu. Sokolov,
    K. Patkowski, A. E. DePrince III, U. Bozkaya, R. A. King,
    F. A. Evangelista, J. M. Turney, T. D. Crawford, C. D. Sherrill,
    J. Chem. Phys. 152(18) 184108 (2020). https://doi.org/10.1063/5.0006002

                            Additional Code Authors
    E. T. Seidl, C. L. Janssen, E. F. Valeev, M. L. Leininger,
    J. F. Gonthier, R. M. Richard, H. R. McAlexander, M. Saitow, X. Wang,
    P. Verma, and M. H. Lechner

             Previous Authors, Complete List of Code Contributors,
                       and Citations for Specific Modules
    https://github.com/psi4/psi4/blob/master/codemeta.json
    https://github.com/psi4/psi4/graphs/contributors
    http://psicode.org/psi4manual/master/introduction.html#citing-psifour

    -----------------------------------------------------------------------


    Psi4 started on: Saturday, 27 February 2021 02:04PM

    Process ID: 102964
    Host:       c401-054.stampede2.tacc.utexas.edu
    PSIDATADIR: /home1/07844/xy3866/miniconda3/envs/p4env/share/psi4
    Memory:     500.0 MiB
    Threads:    32
    
  ==> Input File <==

--------------------------------------------------------------------------
#psi4
#
memory 32 gb

molecule  {
0 1
  O        1.3629200    -0.6007480     0.0540100
  O       -1.5111639    -0.4921936    -0.2231089
  C        0.6753190     0.6118990    -0.2881280
  C       -0.7297860     0.5791870     0.2830810
  H        1.2295620     1.4983740     0.0482790
  H        0.6301520     0.6189470    -1.3788980
  H       -1.3096140     1.4447800    -0.0505840
  H       -0.6789700     0.6132250     1.3845490
  H        1.5826490    -0.5504470     1.0004920
  H       -0.7479790    -1.2966940    -0.0970910
units angstrom
no_reorient  #important for SAPT in psi4, default
symmetry c1  #important for SAPT in psi4, default
}

set PROPERTIES_ORIGIN ["COM"]
properties('MP2/aug-cc-pvtz', properties = ['dipole'])
--------------------------------------------------------------------------

  Memory set to  29.802 GiB by Python driver.
    SCF Algorithm Type (re)set to DF.

*** tstart() called on c401-054.stampede2.tacc.utexas.edu
*** at Sat Feb 27 14:04:55 2021

   => Loading Basis Set <=

    Name: AUG-CC-PVTZ
    Role: ORBITAL
    Keyword: BASIS
    atoms 1-2  entry O          line   331 file /home1/07844/xy3866/miniconda3/envs/p4env/share/psi4/basis/aug-cc-pvtz.gbs 
    atoms 3-4  entry C          line   239 file /home1/07844/xy3866/miniconda3/envs/p4env/share/psi4/basis/aug-cc-pvtz.gbs 
    atoms 5-10 entry H          line    40 file /home1/07844/xy3866/miniconda3/envs/p4env/share/psi4/basis/aug-cc-pvtz.gbs 


         ---------------------------------------------------------
                                   SCF
               by Justin Turney, Rob Parrish, Andy Simmonett
                          and Daniel G. A. Smith
                              RHF Reference
                       32 Threads,  30517 MiB Core
         ---------------------------------------------------------

  ==> Geometry <==

    Molecular point group: c1
    Full point group: C1

    Geometry (in Angstrom), charge = 0, multiplicity = 1:

       Center              X                  Y                   Z               Mass       
    ------------   -----------------  -----------------  -----------------  -----------------
         O            1.400211259101    -0.587174238415     0.083854298176    15.994914619570
         O           -1.473872640899    -0.478619838415    -0.193264601824    15.994914619570
         C            0.712610259101     0.625472761585    -0.258283701824    12.000000000000
         C           -0.692494740899     0.592760761585     0.312925298176    12.000000000000
         H            1.266853259101     1.511947761585     0.078123298176     1.007825032230
         H            0.667443259101     0.632520761585    -1.349053701824     1.007825032230
         H           -1.272322740899     1.458353761585    -0.020739701824     1.007825032230
         H           -0.641678740899     0.626798761585     1.414393298176     1.007825032230
         H            1.619940259101    -0.536873238415     1.030336298176     1.007825032230
         H           -0.710687740899    -1.283120238415    -0.067246701824     1.007825032230

  Running in c1 symmetry.

  Rotational constants: A =      0.51334  B =      0.18158  C =      0.15247 [cm^-1]
  Rotational constants: A =  15389.68330  B =   5443.48187  C =   4570.82860 [MHz]
  Nuclear repulsion =  132.371300711408367

  Charge       = 0
  Multiplicity = 1
  Electrons    = 34
  Nalpha       = 17
  Nbeta        = 17

  ==> Algorithm <==

  SCF Algorithm Type is DF.
  DIIS enabled.
  MOM disabled.
  Fractional occupation disabled.
  Guess Type is SAD.
  Energy threshold   = 1.00e-10
  Density threshold  = 1.00e-10
  Integral threshold = 1.00e-12

  ==> Primary Basis <==

  Basis Set: AUG-CC-PVTZ
    Blend: AUG-CC-PVTZ
    Number of shells: 110
    Number of basis functions: 322
    Number of Cartesian functions: 370
    Spherical Harmonics?: true
    Max angular momentum: 3

   => Loading Basis Set <=

    Name: (AUG-CC-PVTZ AUX)
    Role: JKFIT
    Keyword: DF_BASIS_SCF
    atoms 1-2  entry O          line   286 file /home1/07844/xy3866/miniconda3/envs/p4env/share/psi4/basis/aug-cc-pvtz-jkfit.gbs 
    atoms 3-4  entry C          line   162 file /home1/07844/xy3866/miniconda3/envs/p4env/share/psi4/basis/aug-cc-pvtz-jkfit.gbs 
    atoms 5-10 entry H          line    70 file /home1/07844/xy3866/miniconda3/envs/p4env/share/psi4/basis/aug-cc-pvtz-jkfit.gbs 

  ==> Integral Setup <==

  DFHelper Memory: AOs need 0.579 GiB; user supplied 22.352 GiB. Using in-core AOs.

  ==> MemDFJK: Density-Fitted J/K Matrices <==

    J tasked:                   Yes
    K tasked:                   Yes
    wK tasked:                   No
    OpenMP threads:              32
    Memory [MiB]:             22888
    Algorithm:                 Core
    Schwarz Cutoff:           1E-12
    Mask sparsity (%):       0.9259
    Fitting Condition:        1E-10

   => Auxiliary Basis Set <=

  Basis Set: (AUG-CC-PVTZ AUX)
    Blend: AUG-CC-PVTZ-JKFIT
    Number of shells: 204
    Number of basis functions: 692
    Number of Cartesian functions: 854
    Spherical Harmonics?: true
    Max angular momentum: 4

  Minimum eigenvalue in the overlap matrix is 1.7251667763E-05.
  Reciprocal condition number of the overlap matrix is 1.1237198337E-06.
    Using symmetric orthogonalization.

  ==> Pre-Iterations <==

  SCF Guess: Superposition of Atomic Densities via on-the-fly atomic UHF (no occupation information).

   -------------------------
    Irrep   Nso     Nmo    
   -------------------------
     A        322     322 
   -------------------------
    Total     322     322
   -------------------------

  ==> Iterations <==

                           Total Energy        Delta E     RMS |[F,P]|

   @DF-RHF iter SAD:  -228.12030613244991   -2.28120e+02   0.00000e+00 
   @DF-RHF iter   1:  -228.84453619987349   -7.24230e-01   1.72735e-03 DIIS
   @DF-RHF iter   2:  -228.96186076390299   -1.17325e-01   1.04537e-03 DIIS
   @DF-RHF iter   3:  -228.99982224034008   -3.79615e-02   1.66879e-04 DIIS
   @DF-RHF iter   4:  -229.00194132785987   -2.11909e-03   5.81540e-05 DIIS
   @DF-RHF iter   5:  -229.00217608169424   -2.34754e-04   1.55798e-05 DIIS
   @DF-RHF iter   6:  -229.00219929298441   -2.32113e-05   5.22068e-06 DIIS
   @DF-RHF iter   7:  -229.00220256490280   -3.27192e-06   2.09221e-06 DIIS
   @DF-RHF iter   8:  -229.00220295495632   -3.90054e-07   6.66914e-07 DIIS
   @DF-RHF iter   9:  -229.00220300748541   -5.25291e-08   1.29044e-07 DIIS
   @DF-RHF iter  10:  -229.00220300984623   -2.36082e-09   3.55517e-08 DIIS
   @DF-RHF iter  11:  -229.00220301003191   -1.85679e-10   1.16829e-08 DIIS
   @DF-RHF iter  12:  -229.00220301005496   -2.30500e-11   3.63436e-09 DIIS
   @DF-RHF iter  13:  -229.00220301005697   -2.01794e-12   1.28508e-09 DIIS
   @DF-RHF iter  14:  -229.00220301005689    8.52651e-14   5.08677e-10 DIIS
   @DF-RHF iter  15:  -229.00220301005672    1.70530e-13   1.72686e-10 DIIS
   @DF-RHF iter  16:  -229.00220301005714   -4.26326e-13   4.65270e-11 DIIS
  Energy and wave function converged.


  ==> Post-Iterations <==

    Orbital Energies [Eh]
    ---------------------

    Doubly Occupied:                                                      

       1A    -20.579513     2A    -20.569566     3A    -11.287944  
       4A    -11.278575     5A     -1.378568     6A     -1.332681  
       7A     -0.997669     8A     -0.843686     9A     -0.701488  
      10A     -0.686414    11A     -0.644278    12A     -0.599229  
      13A     -0.570235    14A     -0.525140    15A     -0.505419  
      16A     -0.474900    17A     -0.438330  

    Virtual:                                                              

      18A      0.025185    19A      0.036903    20A      0.042322  
      21A      0.044521    22A      0.062424    23A      0.065505  
      24A      0.097199    25A      0.101267    26A      0.107957  
      27A      0.121118    28A      0.129256    29A      0.132349  
      30A      0.145072    31A      0.171803    32A      0.180496  
      33A      0.185154    34A      0.191206    35A      0.197607  
      36A      0.209704    37A      0.223309    38A      0.243882  
      39A      0.255218    40A      0.259272    41A      0.262384  
      42A      0.287607    43A      0.288754    44A      0.295415  
      45A      0.312523    46A      0.334062    47A      0.337560  
      48A      0.348156    49A      0.349571    50A      0.364213  
      51A      0.368735    52A      0.378793    53A      0.385930  
      54A      0.390815    55A      0.408056    56A      0.416112  
      57A      0.422863    58A      0.430213    59A      0.439026  
      60A      0.456956    61A      0.465191    62A      0.468825  
      63A      0.476525    64A      0.486639    65A      0.489105  
      66A      0.497336    67A      0.508945    68A      0.510715  
      69A      0.528908    70A      0.532403    71A      0.541486  
      72A      0.566062    73A      0.575669    74A      0.586968  
      75A      0.603332    76A      0.635080    77A      0.681708  
      78A      0.684935    79A      0.716514    80A      0.733661  
      81A      0.748280    82A      0.764821    83A      0.784736  
      84A      0.791360    85A      0.819670    86A      0.824180  
      87A      0.827204    88A      0.842443    89A      0.853630  
      90A      0.859083    91A      0.870316    92A      0.877887  
      93A      0.891640    94A      0.919090    95A      0.930673  
      96A      0.945511    97A      0.956119    98A      0.958329  
      99A      0.978006   100A      0.990505   101A      1.008377  
     102A      1.016391   103A      1.021537   104A      1.032509  
     105A      1.039146   106A      1.060027   107A      1.061575  
     108A      1.084478   109A      1.101086   110A      1.117861  
     111A      1.124598   112A      1.131319   113A      1.139811  
     114A      1.151632   115A      1.152458   116A      1.168097  
     117A      1.176460   118A      1.189830   119A      1.208123  
     120A      1.220119   121A      1.245920   122A      1.266899  
     123A      1.295444   124A      1.302756   125A      1.315789  
     126A      1.331845   127A      1.352566   128A      1.373018  
     129A      1.378409   130A      1.392347   131A      1.411124  
     132A      1.429441   133A      1.444403   134A      1.475746  
     135A      1.480322   136A      1.506175   137A      1.529691  
     138A      1.547124   139A      1.556532   140A      1.591348  
     141A      1.599133   142A      1.609642   143A      1.619340  
     144A      1.631756   145A      1.650264   146A      1.681946  
     147A      1.697943   148A      1.702302   149A      1.727416  
     150A      1.741393   151A      1.754586   152A      1.763635  
     153A      1.812876   154A      1.822429   155A      1.834970  
     156A      1.858199   157A      1.869796   158A      1.894665  
     159A      1.916569   160A      1.934952   161A      1.952421  
     162A      1.967329   163A      1.994517   164A      2.032216  
     165A      2.037381   166A      2.057470   167A      2.108159  
     168A      2.116124   169A      2.160344   170A      2.193875  
     171A      2.208424   172A      2.249081   173A      2.281572  
     174A      2.289812   175A      2.324721   176A      2.395844  
     177A      2.435654   178A      2.485844   179A      2.512945  
     180A      2.549840   181A      2.560073   182A      2.599626  
     183A      2.628047   184A      2.657178   185A      2.668797  
     186A      2.711165   187A      2.730105   188A      2.757858  
     189A      2.775416   190A      2.791324   191A      2.827472  
     192A      2.873344   193A      2.887930   194A      2.915917  
     195A      2.937229   196A      2.975183   197A      2.998350  
     198A      3.013146   199A      3.045971   200A      3.054302  
     201A      3.069660   202A      3.150313   203A      3.175501  
     204A      3.231952   205A      3.321024   206A      3.408413  
     207A      3.453353   208A      3.481662   209A      3.536222  
     210A      3.565940   211A      3.607076   212A      3.633553  
     213A      3.644673   214A      3.674545   215A      3.700002  
     216A      3.733721   217A      3.764365   218A      3.780795  
     219A      3.787786   220A      3.846046   221A      3.897529  
     222A      3.915037   223A      3.943085   224A      3.965977  
     225A      3.973424   226A      3.997633   227A      4.038789  
     228A      4.043351   229A      4.064747   230A      4.074992  
     231A      4.125677   232A      4.144522   233A      4.210463  
     234A      4.221982   235A      4.247635   236A      4.267251  
     237A      4.316965   238A      4.343865   239A      4.350101  
     240A      4.388888   241A      4.396093   242A      4.402318  
     243A      4.465408   244A      4.505204   245A      4.521539  
     246A      4.547545   247A      4.603387   248A      4.606627  
     249A      4.651179   250A      4.678881   251A      4.699797  
     252A      4.755513   253A      4.773866   254A      4.798689  
     255A      4.835057   256A      4.866618   257A      4.891496  
     258A      4.922174   259A      4.934254   260A      4.991310  
     261A      5.015903   262A      5.048142   263A      5.059496  
     264A      5.077769   265A      5.110706   266A      5.140153  
     267A      5.173427   268A      5.245681   269A      5.280388  
     270A      5.295169   271A      5.344388   272A      5.399051  
     273A      5.413076   274A      5.448255   275A      5.483810  
     276A      5.501451   277A      5.543703   278A      5.581764  
     279A      5.621188   280A      5.638095   281A      5.697186  
     282A      5.788704   283A      5.943700   284A      6.013145  
     285A      6.035725   286A      6.048569   287A      6.188592  
     288A      6.233140   289A      6.308283   290A      6.366696  
     291A      6.562759   292A      6.648630   293A      6.709371  
     294A      6.809121   295A      6.909761   296A      6.930047  
     297A      6.970122   298A      6.997797   299A      7.040184  
     300A      7.104760   301A      7.132711   302A      7.213943  
     303A      7.299053   304A      7.304307   305A      7.379352  
     306A      7.444269   307A      7.458342   308A      7.491199  
     309A      7.584729   310A      7.651748   311A      7.773541  
     312A      7.802128   313A      7.877006   314A      8.012181  
     315A      8.134108   316A      8.183652   317A      8.260609  
     318A      8.502669   319A     14.527917   320A     15.719251  
     321A     17.488170   322A     18.420167  

    Final Occupation by Irrep:
              A 
    DOCC [    17 ]

  @DF-RHF Final Energy:  -229.00220301005714

   => Energetics <=

    Nuclear Repulsion Energy =            132.3713007114083666
    One-Electron Energy =                -575.9197398042862233
    Two-Electron Energy =                 214.5462360828207125
    Total Energy =                       -229.0022030100571442

Computation Completed

*** tstop() called on c401-054.stampede2.tacc.utexas.edu at Sat Feb 27 14:05:04 2021
Module time:
	user time   =     121.44 seconds =       2.02 minutes
	system time =      11.49 seconds =       0.19 minutes
	total time  =          9 seconds =       0.15 minutes
Total time:
	user time   =     121.44 seconds =       2.02 minutes
	system time =      11.49 seconds =       0.19 minutes
	total time  =          9 seconds =       0.15 minutes
   => Loading Basis Set <=

    Name: (AUG-CC-PVTZ AUX)
    Role: RIFIT
    Keyword: DF_BASIS_MP2
    atoms 1-2  entry O          line   264 file /home1/07844/xy3866/miniconda3/envs/p4env/share/psi4/basis/aug-cc-pvtz-ri.gbs 
    atoms 3-4  entry C          line   148 file /home1/07844/xy3866/miniconda3/envs/p4env/share/psi4/basis/aug-cc-pvtz-ri.gbs 
    atoms 5-10 entry H          line    30 file /home1/07844/xy3866/miniconda3/envs/p4env/share/psi4/basis/aug-cc-pvtz-ri.gbs 


*** tstart() called on c401-054.stampede2.tacc.utexas.edu
*** at Sat Feb 27 14:05:05 2021


  //>>>>>>>>>>>>>>>>>>>>>>>>>>>>>>>>>>>//
  //               DFMP2               //
  //<<<<<<<<<<<<<<<<<<<<<<<<<<<<<<<<<<<//

	 --------------------------------------------------------
	                          DF-MP2                         
	      2nd-Order Density-Fitted Moller-Plesset Theory     
	              RMP2 Wavefunction,  32 Threads             
	                                                         
	        Rob Parrish, Justin Turney, Andy Simmonett,      
	           Ed Hohenstein, and C. David Sherrill          
	 --------------------------------------------------------

   => Auxiliary Basis Set <=

  Basis Set: (AUG-CC-PVTZ AUX)
    Blend: AUG-CC-PVTZ-RI
    Number of shells: 196
    Number of basis functions: 700
    Number of Cartesian functions: 874
    Spherical Harmonics?: true
    Max angular momentum: 4

	 --------------------------------------------------------
	                 NBF =   322, NAUX =   700
	 --------------------------------------------------------
	   CLASS    FOCC     OCC    AOCC    AVIR     VIR    FVIR
	   PAIRS       0      17      17     305     305       0
	 --------------------------------------------------------

  DFHelper Memory: AOs need 0.582 GiB; user supplied 22.352 GiB. Using in-core AOs.


         ------------------------------------------------------------
                                     CPHF                           
                                  Rob Parrish                       
         ------------------------------------------------------------

  ==> Geometry <==

    Molecular point group: c1
    Full point group: C1

    Geometry (in Angstrom), charge = 0, multiplicity = 1:

       Center              X                  Y                   Z               Mass       
    ------------   -----------------  -----------------  -----------------  -----------------
         O            1.400211259101    -0.587174238415     0.083854298176    15.994914619570
         O           -1.473872640899    -0.478619838415    -0.193264601824    15.994914619570
         C            0.712610259101     0.625472761585    -0.258283701824    12.000000000000
         C           -0.692494740899     0.592760761585     0.312925298176    12.000000000000
         H            1.266853259101     1.511947761585     0.078123298176     1.007825032230
         H            0.667443259101     0.632520761585    -1.349053701824     1.007825032230
         H           -1.272322740899     1.458353761585    -0.020739701824     1.007825032230
         H           -0.641678740899     0.626798761585     1.414393298176     1.007825032230
         H            1.619940259101    -0.536873238415     1.030336298176     1.007825032230
         H           -0.710687740899    -1.283120238415    -0.067246701824     1.007825032230

  Nuclear repulsion =  132.371300711408367
  Reference energy  = -229.002203010057144

  ==> Basis Set <==

  Basis Set: AUG-CC-PVTZ
    Blend: AUG-CC-PVTZ
    Number of shells: 110
    Number of basis functions: 322
    Number of Cartesian functions: 370
    Spherical Harmonics?: true
    Max angular momentum: 3

  ==> CGRSolver (by Rob Parrish) <==

   Number of roots    =         1
   Preconditioning    =    JACOBI
   Convergence cutoff =     1E-06
   Maximum iterations =       100

  ==> CPHFRHamiltonian (by Rob Parrish) <== 

  ==> MemDFJK: Density-Fitted J/K Matrices <==

    J tasked:                   Yes
    K tasked:                   Yes
    wK tasked:                   No
    OpenMP threads:              32
    Memory [MiB]:             22888
    Algorithm:                 Core
    Schwarz Cutoff:           1E-12
    Mask sparsity (%):       0.3646
    Fitting Condition:        1E-10

   => Auxiliary Basis Set <=

  Basis Set: (AUG-CC-PVTZ AUX)
    Blend: AUG-CC-PVTZ-JKFIT
    Number of shells: 204
    Number of basis functions: 692
    Number of Cartesian functions: 854
    Spherical Harmonics?: true
    Max angular momentum: 4

  ==> CPHF Iterations <==

  => Iterations <=

             Iter  Converged  Remaining    Residual
  CGR           1          0          1   7.716E-02
  CGR           2          0          1   2.076E-02
  CGR           3          0          1   9.359E-03
  CGR           4          0          1   2.270E-03
  CGR           5          0          1   5.681E-04
  CGR           6          0          1   2.186E-04
  CGR           7          0          1   7.024E-05
  CGR           8          0          1   2.007E-05
  CGR           9          0          1   4.682E-06
  CGR          10          0          1   1.567E-06
  CGR          11          1          0   5.125E-07

    CGRSolver converged.

	-----------------------------------------------------------
	 ==================> DF-MP2 Energies <==================== 
	-----------------------------------------------------------
	 Reference Energy          =    -229.0022030100571442 [Eh]
	 Singles Energy            =      -0.0000000000000000 [Eh]
	 Same-Spin Energy          =      -0.2189962290315761 [Eh]
	 Opposite-Spin Energy      =      -0.7108369075011459 [Eh]
	 Correlation Energy        =      -0.9298331365327220 [Eh]
	 Total Energy              =    -229.9320361465898657 [Eh]
	-----------------------------------------------------------
	 ================> DF-SCS-MP2 Energies <================== 
	-----------------------------------------------------------
	 SCS Same-Spin Scale       =       0.3333333333333333 [-]
	 SCS Opposite-Spin Scale   =       1.2000000000000000 [-]
	 SCS Same-Spin Energy      =      -0.0729987430105254 [Eh]
	 SCS Opposite-Spin Energy  =      -0.8530042890013750 [Eh]
	 SCS Correlation Energy    =      -0.9260030320119004 [Eh]
	 SCS Total Energy          =    -229.9282060420690357 [Eh]
	-----------------------------------------------------------



Properties will be evaluated at   0.000000,  -0.000000,   0.000000 [a0]

Properties computed using the MP2 density matrix

  Nuclear Dipole Moment: [e a0]
     X:     0.8711      Y:     2.2538      Z:     1.0174

  Electronic Dipole Moment: [e a0]
     X:    -0.2503      Y:    -1.7293      Z:    -0.4008

  Dipole Moment: [e a0]
     X:     0.6208      Y:     0.5246      Z:     0.6166     Total:     1.0202

  Dipole Moment: [D]
     X:     1.5779      Y:     1.3333      Z:     1.5672     Total:     2.5930


*** tstop() called on c401-054.stampede2.tacc.utexas.edu at Sat Feb 27 14:05:41 2021
Module time:
	user time   =     248.97 seconds =       4.15 minutes
	system time =      12.75 seconds =       0.21 minutes
	total time  =         36 seconds =       0.60 minutes
Total time:
	user time   =     372.52 seconds =       6.21 minutes
	system time =      24.45 seconds =       0.41 minutes
	total time  =         46 seconds =       0.77 minutes

    Psi4 stopped on: Saturday, 27 February 2021 02:05PM
    Psi4 wall time for execution: 0:00:46.83

*** Psi4 exiting successfully. Buy a developer a beer!
