
    -----------------------------------------------------------------------
          Psi4: An Open-Source Ab Initio Electronic Structure Package
                               Psi4 1.4a3.dev225 

                         Git: Rev {master} 7105e37 


    D. G. A. Smith, L. A. Burns, A. C. Simmonett, R. M. Parrish,
    M. C. Schieber, R. Galvelis, P. Kraus, H. Kruse, R. Di Remigio,
    A. Alenaizan, A. M. James, S. Lehtola, J. P. Misiewicz, M. Scheurer,
    R. A. Shaw, J. B. Schriber, Y. Xie, Z. L. Glick, D. A. Sirianni,
    J. S. O'Brien, J. M. Waldrop, A. Kumar, E. G. Hohenstein,
    B. P. Pritchard, B. R. Brooks, H. F. Schaefer III, A. Yu. Sokolov,
    K. Patkowski, A. E. DePrince III, U. Bozkaya, R. A. King,
    F. A. Evangelista, J. M. Turney, T. D. Crawford, C. D. Sherrill,
    J. Chem. Phys. 152(18) 184108 (2020). https://doi.org/10.1063/5.0006002

                            Additional Code Authors
    E. T. Seidl, C. L. Janssen, E. F. Valeev, M. L. Leininger,
    J. F. Gonthier, R. M. Richard, H. R. McAlexander, M. Saitow, X. Wang,
    P. Verma, and M. H. Lechner

             Previous Authors, Complete List of Code Contributors,
                       and Citations for Specific Modules
    https://github.com/psi4/psi4/blob/master/codemeta.json
    https://github.com/psi4/psi4/graphs/contributors
    http://psicode.org/psi4manual/master/introduction.html#citing-psifour

    -----------------------------------------------------------------------


    Psi4 started on: Thursday, 01 April 2021 03:10AM

    Process ID: 43603
    Host:       c448-002.stampede2.tacc.utexas.edu
    PSIDATADIR: /home1/07844/xy3866/miniconda3/envs/p4env/share/psi4
    Memory:     500.0 MiB
    Threads:    8
    
  ==> Input File <==

--------------------------------------------------------------------------
#psi4
#
memory 32 gb

molecule  {
0 1
  O       -0.1447520     2.0657680    -0.9147710
  O       -2.4135200    -1.3721290    -0.1231600
  N        2.4623060    -1.2702550     0.0647480
  C        1.2743520    -0.4775570    -0.2805680
  C        1.2169020     0.7460590     0.6287670
  C        0.0292070    -1.3356180    -0.0781670
  C       -0.0652210     1.5501200     0.4236430
  C       -1.2565570    -0.5478520    -0.3033930
  C       -1.3010200     0.6792110     0.6017970
  H        1.2815110    -0.1258050    -1.3254330
  H        1.2829160     0.4071000     1.6706590
  H        2.0904420     1.3917410     0.4518040
  H        0.0420040    -2.2046970    -0.7480580
  H        0.0468530    -1.7199520     0.9526730
  H       -0.0971920     2.3821090     1.1446700
  H       -1.3133970    -0.2220240    -1.3458810
  H       -1.3538320     0.3483370     1.6492240
  H       -2.2017640     1.2636240     0.3898210
  H        3.2597865    -0.7475461    -0.1188464
  H        2.5136850    -2.0796090    -0.5553910
  H        0.6334020     2.6343050    -1.0521070
  H       -2.3814240    -1.6980050     0.7940470
units angstrom
no_reorient  #important for SAPT in psi4, default
symmetry c1  #important for SAPT in psi4, default
}

set PROPERTIES_ORIGIN ["COM"]
properties('MP2/aug-cc-pvtz', properties = ['dipole'])
--------------------------------------------------------------------------

  Memory set to  29.802 GiB by Python driver.
    SCF Algorithm Type (re)set to DF.

*** tstart() called on c448-002.stampede2.tacc.utexas.edu
*** at Thu Apr  1 03:10:42 2021

   => Loading Basis Set <=

    Name: AUG-CC-PVTZ
    Role: ORBITAL
    Keyword: BASIS
    atoms 1-2   entry O          line   331 file /home1/07844/xy3866/miniconda3/envs/p4env/share/psi4/basis/aug-cc-pvtz.gbs 
    atoms 3     entry N          line   285 file /home1/07844/xy3866/miniconda3/envs/p4env/share/psi4/basis/aug-cc-pvtz.gbs 
    atoms 4-9   entry C          line   239 file /home1/07844/xy3866/miniconda3/envs/p4env/share/psi4/basis/aug-cc-pvtz.gbs 
    atoms 10-22 entry H          line    40 file /home1/07844/xy3866/miniconda3/envs/p4env/share/psi4/basis/aug-cc-pvtz.gbs 


         ---------------------------------------------------------
                                   SCF
               by Justin Turney, Rob Parrish, Andy Simmonett
                          and Daniel G. A. Smith
                              RHF Reference
                        8 Threads,  30517 MiB Core
         ---------------------------------------------------------

  ==> Geometry <==

    Molecular point group: c1
    Full point group: C1

    Geometry (in Angstrom), charge = 0, multiplicity = 1:

       Center              X                  Y                   Z               Mass       
    ------------   -----------------  -----------------  -----------------  -----------------
         O           -0.115499969692     2.063431846715    -0.900522564714    15.994914619570
         O           -2.384267969692    -1.374465153285    -0.108911564714    15.994914619570
         N            2.491558030308    -1.272591153285     0.078996435286    14.003074004430
         C            1.303604030308    -0.479893153285    -0.266319564714    12.000000000000
         C            1.246154030308     0.743722846715     0.643015435286    12.000000000000
         C            0.058459030308    -1.337954153285    -0.063918564714    12.000000000000
         C           -0.035968969692     1.547783846715     0.437891435286    12.000000000000
         C           -1.227304969692    -0.550188153285    -0.289144564714    12.000000000000
         C           -1.271767969692     0.676874846715     0.616045435286    12.000000000000
         H            1.310763030308    -0.128141153285    -1.311184564714     1.007825032230
         H            1.312168030308     0.404763846715     1.684907435286     1.007825032230
         H            2.119694030308     1.389404846715     0.466052435286     1.007825032230
         H            0.071256030308    -2.207033153285    -0.733809564714     1.007825032230
         H            0.076105030308    -1.722288153285     0.966921435286     1.007825032230
         H           -0.067939969692     2.379772846715     1.158918435286     1.007825032230
         H           -1.284144969692    -0.224360153285    -1.331632564714     1.007825032230
         H           -1.324579969692     0.346000846715     1.663472435286     1.007825032230
         H           -2.172511969692     1.261287846715     0.404069435286     1.007825032230
         H            3.289038530308    -0.749882253285    -0.104597964714     1.007825032230
         H            2.542937030308    -2.081945153285    -0.541142564714     1.007825032230
         H            0.662654030308     2.631968846715    -1.037858564714     1.007825032230
         H           -2.352171969692    -1.700341153285     0.808295435286     1.007825032230

  Running in c1 symmetry.

  Rotational constants: A =      0.06400  B =      0.05022  C =      0.03264 [cm^-1]
  Rotational constants: A =   1918.79427  B =   1505.49279  C =    978.49761 [MHz]
  Nuclear repulsion =  507.163122775686702

  Charge       = 0
  Multiplicity = 1
  Electrons    = 72
  Nalpha       = 36
  Nbeta        = 36

  ==> Algorithm <==

  SCF Algorithm Type is DF.
  DIIS enabled.
  MOM disabled.
  Fractional occupation disabled.
  Guess Type is SAD.
  Energy threshold   = 1.00e-10
  Density threshold  = 1.00e-10
  Integral threshold = 1.00e-12

  ==> Primary Basis <==

  Basis Set: AUG-CC-PVTZ
    Blend: AUG-CC-PVTZ
    Number of shells: 243
    Number of basis functions: 713
    Number of Cartesian functions: 820
    Spherical Harmonics?: true
    Max angular momentum: 3

   => Loading Basis Set <=

    Name: (AUG-CC-PVTZ AUX)
    Role: JKFIT
    Keyword: DF_BASIS_SCF
    atoms 1-2   entry O          line   286 file /home1/07844/xy3866/miniconda3/envs/p4env/share/psi4/basis/aug-cc-pvtz-jkfit.gbs 
    atoms 3     entry N          line   224 file /home1/07844/xy3866/miniconda3/envs/p4env/share/psi4/basis/aug-cc-pvtz-jkfit.gbs 
    atoms 4-9   entry C          line   162 file /home1/07844/xy3866/miniconda3/envs/p4env/share/psi4/basis/aug-cc-pvtz-jkfit.gbs 
    atoms 10-22 entry H          line    70 file /home1/07844/xy3866/miniconda3/envs/p4env/share/psi4/basis/aug-cc-pvtz-jkfit.gbs 

  ==> Integral Setup <==

  DFHelper Memory: AOs need 5.585 GiB; user supplied 22.352 GiB. Using in-core AOs.

  ==> MemDFJK: Density-Fitted J/K Matrices <==

    J tasked:                   Yes
    K tasked:                   Yes
    wK tasked:                   No
    OpenMP threads:               8
    Memory [MiB]:             22888
    Algorithm:                 Core
    Schwarz Cutoff:           1E-12
    Mask sparsity (%):       6.4603
    Fitting Condition:        1E-10

   => Auxiliary Basis Set <=

  Basis Set: (AUG-CC-PVTZ AUX)
    Blend: AUG-CC-PVTZ-JKFIT
    Number of shells: 452
    Number of basis functions: 1534
    Number of Cartesian functions: 1894
    Spherical Harmonics?: true
    Max angular momentum: 4

  Minimum eigenvalue in the overlap matrix is 2.2659986945E-06.
  Reciprocal condition number of the overlap matrix is 9.3710684291E-08.
    Using symmetric orthogonalization.

  ==> Pre-Iterations <==

  SCF Guess: Superposition of Atomic Densities via on-the-fly atomic UHF (no occupation information).

   -------------------------
    Irrep   Nso     Nmo    
   -------------------------
     A        713     713 
   -------------------------
    Total     713     713
   -------------------------

  ==> Iterations <==

                           Total Energy        Delta E     RMS |[F,P]|

   @DF-RHF iter SAD:  -438.98700857591928   -4.38987e+02   0.00000e+00 
   @DF-RHF iter   1:  -438.71637473966518    2.70634e-01   1.18380e-03 DIIS
   @DF-RHF iter   2:  -439.01732303208018   -3.00948e-01   6.49237e-04 DIIS
   @DF-RHF iter   3:  -439.10436172493462   -8.70387e-02   1.01591e-04 DIIS
   @DF-RHF iter   4:  -439.10876358304148   -4.40186e-03   3.01380e-05 DIIS
   @DF-RHF iter   5:  -439.10901819537679   -2.54612e-04   9.02271e-06 DIIS
   @DF-RHF iter   6:  -439.10904365329600   -2.54579e-05   2.32264e-06 DIIS
   @DF-RHF iter   7:  -439.10904603639335   -2.38310e-06   6.71364e-07 DIIS
   @DF-RHF iter   8:  -439.10904627556442   -2.39171e-07   1.96915e-07 DIIS
   @DF-RHF iter   9:  -439.10904629927251   -2.37081e-08   5.71798e-08 DIIS
   @DF-RHF iter  10:  -439.10904630096468   -1.69217e-09   1.71344e-08 DIIS
   @DF-RHF iter  11:  -439.10904630109627   -1.31593e-10   5.79234e-09 DIIS
   @DF-RHF iter  12:  -439.10904630110957   -1.33014e-11   1.78776e-09 DIIS
   @DF-RHF iter  13:  -439.10904630110929    2.84217e-13   5.19486e-10 DIIS
   @DF-RHF iter  14:  -439.10904630111088   -1.59162e-12   1.63775e-10 DIIS
   @DF-RHF iter  15:  -439.10904630110986    1.02318e-12   5.72445e-11 DIIS
  Energy and wave function converged.


  ==> Post-Iterations <==

    Orbital Energies [Eh]
    ---------------------

    Doubly Occupied:                                                      

       1A    -20.561913     2A    -20.551534     3A    -15.540195  
       4A    -11.285978     5A    -11.271773     6A    -11.256406  
       7A    -11.225938     8A    -11.219833     9A    -11.217445  
      10A     -1.362688    11A     -1.350001    12A     -1.197967  
      13A     -1.089127    14A     -0.996157    15A     -0.987769  
      16A     -0.840480    17A     -0.824484    18A     -0.769756  
      19A     -0.697247    20A     -0.678404    21A     -0.659963  
      22A     -0.641593    23A     -0.627870    24A     -0.612101  
      25A     -0.592799    26A     -0.564517    27A     -0.549369  
      28A     -0.530433    29A     -0.526859    30A     -0.499911  
      31A     -0.490447    32A     -0.475899    33A     -0.453663  
      34A     -0.444405    35A     -0.420404    36A     -0.395969  

    Virtual:                                                              

      37A      0.023825    38A      0.031085    39A      0.034199  
      40A      0.039707    41A      0.047976    42A      0.049805  
      43A      0.054881    44A      0.056687    45A      0.058608  
      46A      0.072472    47A      0.075609    48A      0.076798  
      49A      0.079664    50A      0.105672    51A      0.109681  
      52A      0.113888    53A      0.117976    54A      0.122328  
      55A      0.126494    56A      0.127680    57A      0.131690  
      58A      0.136268    59A      0.140535    60A      0.143290  
      61A      0.148742    62A      0.152849    63A      0.155623  
      64A      0.158802    65A      0.160144    66A      0.168952  
      67A      0.174778    68A      0.176142    69A      0.185373  
      70A      0.188595    71A      0.196583    72A      0.202353  
      73A      0.204787    74A      0.213764    75A      0.232684  
      76A      0.236595    77A      0.243578    78A      0.248980  
      79A      0.255237    80A      0.266039    81A      0.267787  
      82A      0.274605    83A      0.281937    84A      0.289228  
      85A      0.291521    86A      0.297886    87A      0.300997  
      88A      0.302817    89A      0.306635    90A      0.317351  
      91A      0.319829    92A      0.322194    93A      0.328263  
      94A      0.332667    95A      0.336150    96A      0.339919  
      97A      0.343252    98A      0.348376    99A      0.353477  
     100A      0.358163   101A      0.360638   102A      0.364807  
     103A      0.371592   104A      0.374604   105A      0.380409  
     106A      0.385432   107A      0.390800   108A      0.391110  
     109A      0.406667   110A      0.409414   111A      0.414744  
     112A      0.418616   113A      0.427381   114A      0.430369  
     115A      0.433858   116A      0.440516   117A      0.444740  
     118A      0.450914   119A      0.453052   120A      0.456021  
     121A      0.464533   122A      0.469185   123A      0.471160  
     124A      0.475952   125A      0.477876   126A      0.480232  
     127A      0.490218   128A      0.492258   129A      0.496568  
     130A      0.499987   131A      0.504721   132A      0.505583  
     133A      0.510267   134A      0.512833   135A      0.522362  
     136A      0.528955   137A      0.531715   138A      0.542213  
     139A      0.549449   140A      0.552428   141A      0.553418  
     142A      0.560798   143A      0.563903   144A      0.574955  
     145A      0.579529   146A      0.580589   147A      0.582974  
     148A      0.586731   149A      0.591092   150A      0.599755  
     151A      0.607396   152A      0.613640   153A      0.617614  
     154A      0.627338   155A      0.630882   156A      0.635703  
     157A      0.639076   158A      0.646657   159A      0.647729  
     160A      0.655596   161A      0.657819   162A      0.661262  
     163A      0.672375   164A      0.675493   165A      0.682633  
     166A      0.688921   167A      0.701132   168A      0.701990  
     169A      0.715571   170A      0.722362   171A      0.723772  
     172A      0.734204   173A      0.741777   174A      0.753585  
     175A      0.760739   176A      0.767306   177A      0.776403  
     178A      0.777484   179A      0.787220   180A      0.788582  
     181A      0.790132   182A      0.802287   183A      0.814820  
     184A      0.815882   185A      0.833725   186A      0.840306  
     187A      0.848261   188A      0.857182   189A      0.864685  
     190A      0.875407   191A      0.883783   192A      0.886194  
     193A      0.896017   194A      0.900968   195A      0.912723  
     196A      0.913108   197A      0.914826   198A      0.925089  
     199A      0.926646   200A      0.943553   201A      0.949796  
     202A      0.959481   203A      0.963005   204A      0.969182  
     205A      0.974294   206A      0.980454   207A      0.988267  
     208A      0.993571   209A      1.002403   210A      1.007943  
     211A      1.014604   212A      1.018579   213A      1.025616  
     214A      1.027845   215A      1.038298   216A      1.045789  
     217A      1.049319   218A      1.055260   219A      1.055951  
     220A      1.061605   221A      1.072622   222A      1.077005  
     223A      1.081921   224A      1.090647   225A      1.097070  
     226A      1.100572   227A      1.104752   228A      1.108558  
     229A      1.118137   230A      1.125762   231A      1.131351  
     232A      1.135317   233A      1.139376   234A      1.142824  
     235A      1.149374   236A      1.155155   237A      1.160297  
     238A      1.168153   239A      1.172698   240A      1.181498  
     241A      1.183790   242A      1.192682   243A      1.194453  
     244A      1.206151   245A      1.207347   246A      1.218805  
     247A      1.221740   248A      1.227607   249A      1.234103  
     250A      1.239059   251A      1.252795   252A      1.259946  
     253A      1.263295   254A      1.272906   255A      1.274321  
     256A      1.281403   257A      1.291426   258A      1.300771  
     259A      1.307582   260A      1.313511   261A      1.321110  
     262A      1.328399   263A      1.331699   264A      1.340488  
     265A      1.342910   266A      1.359271   267A      1.359544  
     268A      1.369202   269A      1.380287   270A      1.384338  
     271A      1.394497   272A      1.399273   273A      1.404960  
     274A      1.421539   275A      1.427458   276A      1.428985  
     277A      1.440276   278A      1.446353   279A      1.454521  
     280A      1.467106   281A      1.483986   282A      1.488131  
     283A      1.503078   284A      1.505279   285A      1.520457  
     286A      1.522037   287A      1.529870   288A      1.537338  
     289A      1.540511   290A      1.548780   291A      1.559415  
     292A      1.561354   293A      1.569867   294A      1.579835  
     295A      1.585894   296A      1.589739   297A      1.600224  
     298A      1.605636   299A      1.611399   300A      1.616477  
     301A      1.624566   302A      1.633111   303A      1.636646  
     304A      1.650484   305A      1.659008   306A      1.662456  
     307A      1.672338   308A      1.682822   309A      1.699345  
     310A      1.703196   311A      1.713601   312A      1.721859  
     313A      1.728217   314A      1.734253   315A      1.741180  
     316A      1.751429   317A      1.760274   318A      1.769214  
     319A      1.775693   320A      1.782244   321A      1.790491  
     322A      1.795318   323A      1.798654   324A      1.812386  
     325A      1.817150   326A      1.831497   327A      1.835775  
     328A      1.845547   329A      1.850899   330A      1.858294  
     331A      1.865588   332A      1.875476   333A      1.881250  
     334A      1.883471   335A      1.887202   336A      1.900916  
     337A      1.915080   338A      1.921762   339A      1.934986  
     340A      1.942006   341A      1.948597   342A      1.954346  
     343A      1.965137   344A      1.968532   345A      1.971483  
     346A      1.980842   347A      1.994736   348A      1.999504  
     349A      2.004288   350A      2.015431   351A      2.021038  
     352A      2.025424   353A      2.029911   354A      2.050634  
     355A      2.052739   356A      2.065051   357A      2.074039  
     358A      2.082449   359A      2.084980   360A      2.096983  
     361A      2.106374   362A      2.112898   363A      2.127402  
     364A      2.138756   365A      2.141218   366A      2.145723  
     367A      2.157556   368A      2.166760   369A      2.187785  
     370A      2.203057   371A      2.212166   372A      2.218606  
     373A      2.229308   374A      2.231189   375A      2.237747  
     376A      2.250611   377A      2.261430   378A      2.275683  
     379A      2.291112   380A      2.293836   381A      2.299992  
     382A      2.327543   383A      2.335336   384A      2.336591  
     385A      2.346915   386A      2.357800   387A      2.370868  
     388A      2.375717   389A      2.402455   390A      2.407096  
     391A      2.429473   392A      2.439133   393A      2.443064  
     394A      2.465158   395A      2.467470   396A      2.478530  
     397A      2.490397   398A      2.504401   399A      2.525068  
     400A      2.539796   401A      2.552297   402A      2.561839  
     403A      2.570713   404A      2.584121   405A      2.595499  
     406A      2.602930   407A      2.606895   408A      2.616805  
     409A      2.636453   410A      2.650523   411A      2.663926  
     412A      2.680884   413A      2.695416   414A      2.703670  
     415A      2.716965   416A      2.726822   417A      2.745911  
     418A      2.763588   419A      2.772783   420A      2.784418  
     421A      2.790457   422A      2.817531   423A      2.827874  
     424A      2.854149   425A      2.871811   426A      2.882810  
     427A      2.904278   428A      2.918305   429A      2.935626  
     430A      2.950486   431A      2.996260   432A      3.012924  
     433A      3.017125   434A      3.020464   435A      3.032805  
     436A      3.055333   437A      3.091198   438A      3.101518  
     439A      3.104474   440A      3.136951   441A      3.162257  
     442A      3.172270   443A      3.188857   444A      3.223475  
     445A      3.235716   446A      3.258129   447A      3.271792  
     448A      3.297722   449A      3.312416   450A      3.330333  
     451A      3.355892   452A      3.381418   453A      3.476314  
     454A      3.506536   455A      3.524851   456A      3.541917  
     457A      3.564822   458A      3.566753   459A      3.587654  
     460A      3.601396   461A      3.612179   462A      3.626981  
     463A      3.639942   464A      3.654300   465A      3.680118  
     466A      3.689974   467A      3.713703   468A      3.727609  
     469A      3.734559   470A      3.749670   471A      3.769892  
     472A      3.775910   473A      3.788752   474A      3.811291  
     475A      3.820265   476A      3.828616   477A      3.849674  
     478A      3.860351   479A      3.876506   480A      3.883119  
     481A      3.890897   482A      3.911831   483A      3.921065  
     484A      3.934582   485A      3.947888   486A      3.955320  
     487A      3.968836   488A      3.987035   489A      3.989565  
     490A      3.991142   491A      4.009577   492A      4.022753  
     493A      4.027227   494A      4.038887   495A      4.054829  
     496A      4.059935   497A      4.064622   498A      4.080111  
     499A      4.088649   500A      4.090593   501A      4.101322  
     502A      4.106805   503A      4.113045   504A      4.125093  
     505A      4.140491   506A      4.159360   507A      4.161543  
     508A      4.172153   509A      4.180810   510A      4.203930  
     511A      4.213915   512A      4.224323   513A      4.237244  
     514A      4.243667   515A      4.251374   516A      4.270150  
     517A      4.284870   518A      4.294762   519A      4.301155  
     520A      4.311620   521A      4.320819   522A      4.345207  
     523A      4.349255   524A      4.364267   525A      4.381907  
     526A      4.384703   527A      4.405955   528A      4.415747  
     529A      4.421864   530A      4.423398   531A      4.441691  
     532A      4.453646   533A      4.460768   534A      4.468102  
     535A      4.480222   536A      4.501943   537A      4.516400  
     538A      4.520768   539A      4.537205   540A      4.561222  
     541A      4.570839   542A      4.580072   543A      4.592372  
     544A      4.617892   545A      4.630525   546A      4.643697  
     547A      4.653540   548A      4.662252   549A      4.682224  
     550A      4.687458   551A      4.703692   552A      4.713586  
     553A      4.731277   554A      4.738840   555A      4.746876  
     556A      4.753917   557A      4.763169   558A      4.779384  
     559A      4.787308   560A      4.803345   561A      4.821281  
     562A      4.830362   563A      4.850219   564A      4.852079  
     565A      4.874370   566A      4.881311   567A      4.888893  
     568A      4.906319   569A      4.910743   570A      4.933792  
     571A      4.943932   572A      4.955171   573A      4.969963  
     574A      4.972132   575A      4.982045   576A      5.001593  
     577A      5.020663   578A      5.037644   579A      5.054718  
     580A      5.071154   581A      5.079160   582A      5.091535  
     583A      5.111277   584A      5.118510   585A      5.131048  
     586A      5.135542   587A      5.142472   588A      5.170703  
     589A      5.177169   590A      5.191645   591A      5.201469  
     592A      5.209511   593A      5.222405   594A      5.243345  
     595A      5.246892   596A      5.265494   597A      5.274743  
     598A      5.282688   599A      5.298548   600A      5.305002  
     601A      5.318018   602A      5.340349   603A      5.354741  
     604A      5.360569   605A      5.378428   606A      5.387727  
     607A      5.396527   608A      5.413071   609A      5.433439  
     610A      5.444973   611A      5.456319   612A      5.471316  
     613A      5.477748   614A      5.494116   615A      5.502285  
     616A      5.523851   617A      5.534594   618A      5.545983  
     619A      5.558576   620A      5.563748   621A      5.568224  
     622A      5.599550   623A      5.615048   624A      5.648044  
     625A      5.656064   626A      5.672358   627A      5.676922  
     628A      5.702587   629A      5.709094   630A      5.718388  
     631A      5.733110   632A      5.753541   633A      5.773198  
     634A      5.784502   635A      5.810515   636A      5.815243  
     637A      5.852360   638A      5.885860   639A      5.894016  
     640A      5.903304   641A      5.928823   642A      5.939311  
     643A      5.949952   644A      5.991292   645A      6.013163  
     646A      6.040938   647A      6.059376   648A      6.082386  
     649A      6.104464   650A      6.129214   651A      6.146837  
     652A      6.165554   653A      6.201643   654A      6.220558  
     655A      6.231364   656A      6.266430   657A      6.279861  
     658A      6.293417   659A      6.335227   660A      6.366029  
     661A      6.373308   662A      6.377041   663A      6.457252  
     664A      6.511816   665A      6.583705   666A      6.634875  
     667A      6.741908   668A      6.752911   669A      6.771790  
     670A      6.787792   671A      6.842670   672A      6.893216  
     673A      6.939897   674A      6.949551   675A      7.003839  
     676A      7.015643   677A      7.040184   678A      7.049028  
     679A      7.066321   680A      7.083060   681A      7.111382  
     682A      7.170218   683A      7.183359   684A      7.257376  
     685A      7.368976   686A      7.382390   687A      7.394266  
     688A      7.439226   689A      7.440119   690A      7.550465  
     691A      7.559766   692A      7.572705   693A      7.702544  
     694A      7.740435   695A      7.763459   696A      7.915409  
     697A      7.945735   698A      7.963005   699A      8.024666  
     700A      8.077210   701A      8.318110   702A      8.342741  
     703A      8.664307   704A      8.685023   705A     16.875326  
     706A     16.955013   707A     18.094375   708A     18.421682  
     709A     18.773982   710A     18.953247   711A     19.228587  
     712A     19.365696   713A     20.115198  

    Final Occupation by Irrep:
              A 
    DOCC [    36 ]

  @DF-RHF Final Energy:  -439.10904630110986

   => Energetics <=

    Nuclear Repulsion Energy =            507.1631227756867020
    One-Electron Energy =               -1605.7217486782162723
    Two-Electron Energy =                 659.4495796014196003
    Total Energy =                       -439.1090463011098564

Computation Completed

*** tstop() called on c448-002.stampede2.tacc.utexas.edu at Thu Apr  1 03:11:54 2021
Module time:
	user time   =     446.90 seconds =       7.45 minutes
	system time =      10.57 seconds =       0.18 minutes
	total time  =         72 seconds =       1.20 minutes
Total time:
	user time   =     446.90 seconds =       7.45 minutes
	system time =      10.57 seconds =       0.18 minutes
	total time  =         72 seconds =       1.20 minutes
   => Loading Basis Set <=

    Name: (AUG-CC-PVTZ AUX)
    Role: RIFIT
    Keyword: DF_BASIS_MP2
    atoms 1-2   entry O          line   264 file /home1/07844/xy3866/miniconda3/envs/p4env/share/psi4/basis/aug-cc-pvtz-ri.gbs 
    atoms 3     entry N          line   206 file /home1/07844/xy3866/miniconda3/envs/p4env/share/psi4/basis/aug-cc-pvtz-ri.gbs 
    atoms 4-9   entry C          line   148 file /home1/07844/xy3866/miniconda3/envs/p4env/share/psi4/basis/aug-cc-pvtz-ri.gbs 
    atoms 10-22 entry H          line    30 file /home1/07844/xy3866/miniconda3/envs/p4env/share/psi4/basis/aug-cc-pvtz-ri.gbs 


*** tstart() called on c448-002.stampede2.tacc.utexas.edu
*** at Thu Apr  1 03:11:55 2021


  //>>>>>>>>>>>>>>>>>>>>>>>>>>>>>>>>>>>//
  //               DFMP2               //
  //<<<<<<<<<<<<<<<<<<<<<<<<<<<<<<<<<<<//

	 --------------------------------------------------------
	                          DF-MP2                         
	      2nd-Order Density-Fitted Moller-Plesset Theory     
	              RMP2 Wavefunction,   8 Threads             
	                                                         
	        Rob Parrish, Justin Turney, Andy Simmonett,      
	           Ed Hohenstein, and C. David Sherrill          
	 --------------------------------------------------------

   => Auxiliary Basis Set <=

  Basis Set: (AUG-CC-PVTZ AUX)
    Blend: AUG-CC-PVTZ-RI
    Number of shells: 434
    Number of basis functions: 1552
    Number of Cartesian functions: 1939
    Spherical Harmonics?: true
    Max angular momentum: 4

	 --------------------------------------------------------
	                 NBF =   713, NAUX =  1552
	 --------------------------------------------------------
	   CLASS    FOCC     OCC    AOCC    AVIR     VIR    FVIR
	   PAIRS       0      36      36     677     677       0
	 --------------------------------------------------------

  DFHelper Memory: AOs need 5.742 GiB; user supplied 22.352 GiB. Using in-core AOs.


         ------------------------------------------------------------
                                     CPHF                           
                                  Rob Parrish                       
         ------------------------------------------------------------

  ==> Geometry <==

    Molecular point group: c1
    Full point group: C1

    Geometry (in Angstrom), charge = 0, multiplicity = 1:

       Center              X                  Y                   Z               Mass       
    ------------   -----------------  -----------------  -----------------  -----------------
         O           -0.115499969692     2.063431846715    -0.900522564714    15.994914619570
         O           -2.384267969692    -1.374465153285    -0.108911564714    15.994914619570
         N            2.491558030308    -1.272591153285     0.078996435286    14.003074004430
         C            1.303604030308    -0.479893153285    -0.266319564714    12.000000000000
         C            1.246154030308     0.743722846715     0.643015435286    12.000000000000
         C            0.058459030308    -1.337954153285    -0.063918564714    12.000000000000
         C           -0.035968969692     1.547783846715     0.437891435286    12.000000000000
         C           -1.227304969692    -0.550188153285    -0.289144564714    12.000000000000
         C           -1.271767969692     0.676874846715     0.616045435286    12.000000000000
         H            1.310763030308    -0.128141153285    -1.311184564714     1.007825032230
         H            1.312168030308     0.404763846715     1.684907435286     1.007825032230
         H            2.119694030308     1.389404846715     0.466052435286     1.007825032230
         H            0.071256030308    -2.207033153285    -0.733809564714     1.007825032230
         H            0.076105030308    -1.722288153285     0.966921435286     1.007825032230
         H           -0.067939969692     2.379772846715     1.158918435286     1.007825032230
         H           -1.284144969692    -0.224360153285    -1.331632564714     1.007825032230
         H           -1.324579969692     0.346000846715     1.663472435286     1.007825032230
         H           -2.172511969692     1.261287846715     0.404069435286     1.007825032230
         H            3.289038530308    -0.749882253285    -0.104597964714     1.007825032230
         H            2.542937030308    -2.081945153285    -0.541142564714     1.007825032230
         H            0.662654030308     2.631968846715    -1.037858564714     1.007825032230
         H           -2.352171969692    -1.700341153285     0.808295435286     1.007825032230

  Nuclear repulsion =  507.163122775686702
  Reference energy  = -439.109046301109856

  ==> Basis Set <==

  Basis Set: AUG-CC-PVTZ
    Blend: AUG-CC-PVTZ
    Number of shells: 243
    Number of basis functions: 713
    Number of Cartesian functions: 820
    Spherical Harmonics?: true
    Max angular momentum: 3

  ==> CGRSolver (by Rob Parrish) <==

   Number of roots    =         1
   Preconditioning    =    JACOBI
   Convergence cutoff =     1E-06
   Maximum iterations =       100

  ==> CPHFRHamiltonian (by Rob Parrish) <== 

  ==> MemDFJK: Density-Fitted J/K Matrices <==

    J tasked:                   Yes
    K tasked:                   Yes
    wK tasked:                   No
    OpenMP threads:               8
    Memory [MiB]:             22888
    Algorithm:                 Core
    Schwarz Cutoff:           1E-12
    Mask sparsity (%):       3.7614
    Fitting Condition:        1E-10

   => Auxiliary Basis Set <=

  Basis Set: (AUG-CC-PVTZ AUX)
    Blend: AUG-CC-PVTZ-JKFIT
    Number of shells: 452
    Number of basis functions: 1534
    Number of Cartesian functions: 1894
    Spherical Harmonics?: true
    Max angular momentum: 4

  ==> CPHF Iterations <==

  => Iterations <=

             Iter  Converged  Remaining    Residual
  CGR           1          0          1   8.472E-02
  CGR           2          0          1   1.778E-02
  CGR           3          0          1   7.126E-03
  CGR           4          0          1   2.019E-03
  CGR           5          0          1   5.150E-04
  CGR           6          0          1   1.379E-04
  CGR           7          0          1   4.396E-05
  CGR           8          0          1   1.292E-05
  CGR           9          0          1   4.206E-06
  CGR          10          0          1   1.272E-06
  CGR          11          1          0   3.565E-07

    CGRSolver converged.

	-----------------------------------------------------------
	 ==================> DF-MP2 Energies <==================== 
	-----------------------------------------------------------
	 Reference Energy          =    -439.1090463011098564 [Eh]
	 Singles Energy            =      -0.0000000000000000 [Eh]
	 Same-Spin Energy          =      -0.4512508233313359 [Eh]
	 Opposite-Spin Energy      =      -1.4724250679653366 [Eh]
	 Correlation Energy        =      -1.9236758912966725 [Eh]
	 Total Energy              =    -441.0327221924065384 [Eh]
	-----------------------------------------------------------
	 ================> DF-SCS-MP2 Energies <================== 
	-----------------------------------------------------------
	 SCS Same-Spin Scale       =       0.3333333333333333 [-]
	 SCS Opposite-Spin Scale   =       1.2000000000000000 [-]
	 SCS Same-Spin Energy      =      -0.1504169411104453 [Eh]
	 SCS Opposite-Spin Energy  =      -1.7669100815584038 [Eh]
	 SCS Correlation Energy    =      -1.9173270226688490 [Eh]
	 SCS Total Energy          =    -441.0263733237787278 [Eh]
	-----------------------------------------------------------



Properties will be evaluated at   0.000000,  -0.000000,   0.000000 [a0]

Properties computed using the MP2 density matrix

  Nuclear Dipole Moment: [e a0]
     X:     3.9024      Y:    -0.3687      Z:     1.9565

  Electronic Dipole Moment: [e a0]
     X:    -2.9027      Y:     0.8098      Z:    -1.6646

  Dipole Moment: [e a0]
     X:     0.9998      Y:     0.4411      Z:     0.2919     Total:     1.1311

  Dipole Moment: [D]
     X:     2.5411      Y:     1.1212      Z:     0.7420     Total:     2.8749


*** tstop() called on c448-002.stampede2.tacc.utexas.edu at Thu Apr  1 03:16:33 2021
Module time:
	user time   =    1745.76 seconds =      29.10 minutes
	system time =      24.84 seconds =       0.41 minutes
	total time  =        278 seconds =       4.63 minutes
Total time:
	user time   =    2193.72 seconds =      36.56 minutes
	system time =      35.44 seconds =       0.59 minutes
	total time  =        351 seconds =       5.85 minutes

    Psi4 stopped on: Thursday, 01 April 2021 03:16AM
    Psi4 wall time for execution: 0:05:52.31

*** Psi4 exiting successfully. Buy a developer a beer!
