
    -----------------------------------------------------------------------
          Psi4: An Open-Source Ab Initio Electronic Structure Package
                               Psi4 1.4a3.dev225 

                         Git: Rev {master} 7105e37 


    D. G. A. Smith, L. A. Burns, A. C. Simmonett, R. M. Parrish,
    M. C. Schieber, R. Galvelis, P. Kraus, H. Kruse, R. Di Remigio,
    A. Alenaizan, A. M. James, S. Lehtola, J. P. Misiewicz, M. Scheurer,
    R. A. Shaw, J. B. Schriber, Y. Xie, Z. L. Glick, D. A. Sirianni,
    J. S. O'Brien, J. M. Waldrop, A. Kumar, E. G. Hohenstein,
    B. P. Pritchard, B. R. Brooks, H. F. Schaefer III, A. Yu. Sokolov,
    K. Patkowski, A. E. DePrince III, U. Bozkaya, R. A. King,
    F. A. Evangelista, J. M. Turney, T. D. Crawford, C. D. Sherrill,
    J. Chem. Phys. 152(18) 184108 (2020). https://doi.org/10.1063/5.0006002

                            Additional Code Authors
    E. T. Seidl, C. L. Janssen, E. F. Valeev, M. L. Leininger,
    J. F. Gonthier, R. M. Richard, H. R. McAlexander, M. Saitow, X. Wang,
    P. Verma, and M. H. Lechner

             Previous Authors, Complete List of Code Contributors,
                       and Citations for Specific Modules
    https://github.com/psi4/psi4/blob/master/codemeta.json
    https://github.com/psi4/psi4/graphs/contributors
    http://psicode.org/psi4manual/master/introduction.html#citing-psifour

    -----------------------------------------------------------------------


    Psi4 started on: Sunday, 28 February 2021 06:26PM

    Process ID: 39523
    Host:       c401-054.stampede2.tacc.utexas.edu
    PSIDATADIR: /home1/07844/xy3866/miniconda3/envs/p4env/share/psi4
    Memory:     500.0 MiB
    Threads:    32
    
  ==> Input File <==

--------------------------------------------------------------------------
#psi4
#
memory 32 gb

molecule  {
0 1
  O       -0.1447520     2.0657680    -0.9147710
  O       -2.4135200    -1.3721290    -0.1231600
  N        2.4623060    -1.2702550     0.0647480
  C        1.2743520    -0.4775570    -0.2805680
  C        1.1231786     0.6194758     0.6561018
  C        0.0292070    -1.3356180    -0.0781670
  C       -0.0652210     1.5501200     0.4236430
  C       -1.2565570    -0.5478520    -0.3033930
  C       -1.3010200     0.6792110     0.6017970
  H        1.2815110    -0.1258050    -1.3254330
  H        1.2829160     0.4071000     1.6706590
  H        2.0904420     1.3917410     0.4518040
  H        0.0420040    -2.2046970    -0.7480580
  H        0.0468530    -1.7199520     0.9526730
  H       -0.0971920     2.3821090     1.1446700
  H       -1.3133970    -0.2220240    -1.3458810
  H       -1.3538320     0.3483370     1.6492240
  H       -2.2017640     1.2636240     0.3898210
  H        3.3008500    -0.7206310    -0.1283000
  H        2.5136850    -2.0796090    -0.5553910
  H        0.6334020     2.6343050    -1.0521070
  H       -2.3814240    -1.6980050     0.7940470
units angstrom
no_reorient  #important for SAPT in psi4, default
symmetry c1  #important for SAPT in psi4, default
}

set PROPERTIES_ORIGIN ["COM"]
properties('MP2/aug-cc-pvtz', properties = ['dipole'])
--------------------------------------------------------------------------

  Memory set to  29.802 GiB by Python driver.
    SCF Algorithm Type (re)set to DF.

*** tstart() called on c401-054.stampede2.tacc.utexas.edu
*** at Sun Feb 28 18:26:27 2021

   => Loading Basis Set <=

    Name: AUG-CC-PVTZ
    Role: ORBITAL
    Keyword: BASIS
    atoms 1-2   entry O          line   331 file /home1/07844/xy3866/miniconda3/envs/p4env/share/psi4/basis/aug-cc-pvtz.gbs 
    atoms 3     entry N          line   285 file /home1/07844/xy3866/miniconda3/envs/p4env/share/psi4/basis/aug-cc-pvtz.gbs 
    atoms 4-9   entry C          line   239 file /home1/07844/xy3866/miniconda3/envs/p4env/share/psi4/basis/aug-cc-pvtz.gbs 
    atoms 10-22 entry H          line    40 file /home1/07844/xy3866/miniconda3/envs/p4env/share/psi4/basis/aug-cc-pvtz.gbs 


         ---------------------------------------------------------
                                   SCF
               by Justin Turney, Rob Parrish, Andy Simmonett
                          and Daniel G. A. Smith
                              RHF Reference
                       32 Threads,  30517 MiB Core
         ---------------------------------------------------------

  ==> Geometry <==

    Molecular point group: c1
    Full point group: C1

    Geometry (in Angstrom), charge = 0, multiplicity = 1:

       Center              X                  Y                   Z               Mass       
    ------------   -----------------  -----------------  -----------------  -----------------
         O           -0.107236503920     2.074811967347    -0.902952031340    15.994914619570
         O           -2.376004503920    -1.363085032653    -0.111341031340    15.994914619570
         N            2.499821496080    -1.261211032653     0.076566968660    14.003074004430
         C            1.311867496080    -0.468513032653    -0.268749031340    12.000000000000
         C            1.160694096080     0.628519767347     0.667920768660    12.000000000000
         C            0.066722496080    -1.326574032653    -0.066348031340    12.000000000000
         C           -0.027705503920     1.559163967347     0.435461968660    12.000000000000
         C           -1.219041503920    -0.538808032653    -0.291574031340    12.000000000000
         C           -1.263504503920     0.688254967347     0.613615968660    12.000000000000
         H            1.319026496080    -0.116761032653    -1.313614031340     1.007825032230
         H            1.320431496080     0.416143967347     1.682477968660     1.007825032230
         H            2.127957496080     1.400784967347     0.463622968660     1.007825032230
         H            0.079519496080    -2.195653032653    -0.736239031340     1.007825032230
         H            0.084368496080    -1.710908032653     0.964491968660     1.007825032230
         H           -0.059676503920     2.391152967347     1.156488968660     1.007825032230
         H           -1.275881503920    -0.212980032653    -1.334062031340     1.007825032230
         H           -1.316316503920     0.357380967347     1.661042968660     1.007825032230
         H           -2.164248503920     1.272667967347     0.401639968660     1.007825032230
         H            3.338365496080    -0.711587032653    -0.116481031340     1.007825032230
         H            2.551200496080    -2.070565032653    -0.543572031340     1.007825032230
         H            0.670917496080     2.643348967347    -1.040288031340     1.007825032230
         H           -2.343908503920    -1.688961032653     0.805865968660     1.007825032230

  Running in c1 symmetry.

  Rotational constants: A =      0.06440  B =      0.05053  C =      0.03293 [cm^-1]
  Rotational constants: A =   1930.81210  B =   1514.81979  C =    987.18082 [MHz]
  Nuclear repulsion =  508.734087991353704

  Charge       = 0
  Multiplicity = 1
  Electrons    = 72
  Nalpha       = 36
  Nbeta        = 36

  ==> Algorithm <==

  SCF Algorithm Type is DF.
  DIIS enabled.
  MOM disabled.
  Fractional occupation disabled.
  Guess Type is SAD.
  Energy threshold   = 1.00e-10
  Density threshold  = 1.00e-10
  Integral threshold = 1.00e-12

  ==> Primary Basis <==

  Basis Set: AUG-CC-PVTZ
    Blend: AUG-CC-PVTZ
    Number of shells: 243
    Number of basis functions: 713
    Number of Cartesian functions: 820
    Spherical Harmonics?: true
    Max angular momentum: 3

   => Loading Basis Set <=

    Name: (AUG-CC-PVTZ AUX)
    Role: JKFIT
    Keyword: DF_BASIS_SCF
    atoms 1-2   entry O          line   286 file /home1/07844/xy3866/miniconda3/envs/p4env/share/psi4/basis/aug-cc-pvtz-jkfit.gbs 
    atoms 3     entry N          line   224 file /home1/07844/xy3866/miniconda3/envs/p4env/share/psi4/basis/aug-cc-pvtz-jkfit.gbs 
    atoms 4-9   entry C          line   162 file /home1/07844/xy3866/miniconda3/envs/p4env/share/psi4/basis/aug-cc-pvtz-jkfit.gbs 
    atoms 10-22 entry H          line    70 file /home1/07844/xy3866/miniconda3/envs/p4env/share/psi4/basis/aug-cc-pvtz-jkfit.gbs 

  ==> Integral Setup <==

  DFHelper Memory: AOs need 5.677 GiB; user supplied 22.352 GiB. Using in-core AOs.

  ==> MemDFJK: Density-Fitted J/K Matrices <==

    J tasked:                   Yes
    K tasked:                   Yes
    wK tasked:                   No
    OpenMP threads:              32
    Memory [MiB]:             22888
    Algorithm:                 Core
    Schwarz Cutoff:           1E-12
    Mask sparsity (%):       6.4339
    Fitting Condition:        1E-10

   => Auxiliary Basis Set <=

  Basis Set: (AUG-CC-PVTZ AUX)
    Blend: AUG-CC-PVTZ-JKFIT
    Number of shells: 452
    Number of basis functions: 1534
    Number of Cartesian functions: 1894
    Spherical Harmonics?: true
    Max angular momentum: 4

  Minimum eigenvalue in the overlap matrix is 1.8211120121E-06.
  Reciprocal condition number of the overlap matrix is 7.5194970169E-08.
    Using symmetric orthogonalization.

  ==> Pre-Iterations <==

  SCF Guess: Superposition of Atomic Densities via on-the-fly atomic UHF (no occupation information).

   -------------------------
    Irrep   Nso     Nmo    
   -------------------------
     A        713     713 
   -------------------------
    Total     713     713
   -------------------------

  ==> Iterations <==

                           Total Energy        Delta E     RMS |[F,P]|

   @DF-RHF iter SAD:  -439.06281849043279   -4.39063e+02   0.00000e+00 
   @DF-RHF iter   1:  -438.67110083668518    3.91718e-01   1.20671e-03 DIIS
   @DF-RHF iter   2:  -438.97667466094873   -3.05574e-01   6.93300e-04 DIIS
   @DF-RHF iter   3:  -439.07859267300768   -1.01918e-01   1.01648e-04 DIIS
   @DF-RHF iter   4:  -439.08326488577518   -4.67221e-03   2.85148e-05 DIIS
   @DF-RHF iter   5:  -439.08350430927891   -2.39424e-04   9.40129e-06 DIIS
   @DF-RHF iter   6:  -439.08353090887920   -2.65996e-05   2.33556e-06 DIIS
   @DF-RHF iter   7:  -439.08353333807702   -2.42920e-06   6.97584e-07 DIIS
   @DF-RHF iter   8:  -439.08353357520531   -2.37128e-07   2.15476e-07 DIIS
   @DF-RHF iter   9:  -439.08353360023767   -2.50324e-08   6.37208e-08 DIIS
   @DF-RHF iter  10:  -439.08353360219610   -1.95843e-09   2.05147e-08 DIIS
   @DF-RHF iter  11:  -439.08353360237243   -1.76328e-10   6.95165e-09 DIIS
   @DF-RHF iter  12:  -439.08353360239016   -1.77351e-11   1.89836e-09 DIIS
   @DF-RHF iter  13:  -439.08353360239130   -1.13687e-12   5.43424e-10 DIIS
   @DF-RHF iter  14:  -439.08353360239323   -1.93268e-12   1.66709e-10 DIIS
   @DF-RHF iter  15:  -439.08353360239170    1.53477e-12   5.90550e-11 DIIS
  Energy and wave function converged.


  ==> Post-Iterations <==

    Orbital Energies [Eh]
    ---------------------

    Doubly Occupied:                                                      

       1A    -20.565203     2A    -20.552372     3A    -15.547585  
       4A    -11.288723     5A    -11.272869     6A    -11.254937  
       7A    -11.233829     8A    -11.218424     9A    -11.217587  
      10A     -1.364367    11A     -1.350806    12A     -1.198906  
      13A     -1.095180    14A     -0.995247    15A     -0.991864  
      16A     -0.841139    17A     -0.823605    18A     -0.774421  
      19A     -0.699007    20A     -0.686354    21A     -0.658637  
      22A     -0.634891    23A     -0.620298    24A     -0.615590  
      25A     -0.593447    26A     -0.571138    27A     -0.556005  
      28A     -0.532390    29A     -0.518548    30A     -0.506690  
      31A     -0.496574    32A     -0.470203    33A     -0.451629  
      34A     -0.425204    35A     -0.421555    36A     -0.400761  

    Virtual:                                                              

      37A      0.024293    38A      0.030715    39A      0.034135  
      40A      0.039676    41A      0.048019    42A      0.049906  
      43A      0.053984    44A      0.056678    45A      0.058477  
      46A      0.072247    47A      0.074789    48A      0.077177  
      49A      0.079816    50A      0.104950    51A      0.108676  
      52A      0.114012    53A      0.118592    54A      0.122081  
      55A      0.126075    56A      0.127638    57A      0.131878  
      58A      0.135924    59A      0.140642    60A      0.143197  
      61A      0.147979    62A      0.152065    63A      0.155848  
      64A      0.159298    65A      0.160743    66A      0.169298  
      67A      0.174529    68A      0.175538    69A      0.184968  
      70A      0.188523    71A      0.195678    72A      0.201243  
      73A      0.204232    74A      0.212552    75A      0.233403  
      76A      0.238142    77A      0.242000    78A      0.249296  
      79A      0.256521    80A      0.265258    81A      0.269198  
      82A      0.275954    83A      0.280298    84A      0.286833  
      85A      0.291071    86A      0.295775    87A      0.298126  
      88A      0.301384    89A      0.305422    90A      0.315420  
      91A      0.319019    92A      0.320883    93A      0.328262  
      94A      0.331789    95A      0.334765    96A      0.339724  
      97A      0.345117    98A      0.348206    99A      0.353591  
     100A      0.357808   101A      0.361232   102A      0.362654  
     103A      0.371501   104A      0.372594   105A      0.381085  
     106A      0.386582   107A      0.389835   108A      0.392088  
     109A      0.403974   110A      0.408167   111A      0.414930  
     112A      0.418972   113A      0.425045   114A      0.430016  
     115A      0.434202   116A      0.437642   117A      0.446302  
     118A      0.450502   119A      0.452393   120A      0.454438  
     121A      0.463800   122A      0.468424   123A      0.470214  
     124A      0.475701   125A      0.476186   126A      0.478701  
     127A      0.489799   128A      0.493049   129A      0.500171  
     130A      0.500468   131A      0.502493   132A      0.507820  
     133A      0.509901   134A      0.516253   135A      0.521188  
     136A      0.529408   137A      0.531712   138A      0.539557  
     139A      0.548727   140A      0.550202   141A      0.553851  
     142A      0.560793   143A      0.565000   144A      0.574016  
     145A      0.577587   146A      0.582848   147A      0.584205  
     148A      0.587388   149A      0.590012   150A      0.599720  
     151A      0.607947   152A      0.611417   153A      0.617499  
     154A      0.627205   155A      0.630976   156A      0.637452  
     157A      0.639320   158A      0.645753   159A      0.647943  
     160A      0.656802   161A      0.660864   162A      0.665322  
     163A      0.669888   164A      0.675231   165A      0.682429  
     166A      0.692055   167A      0.701089   168A      0.701603  
     169A      0.713628   170A      0.721706   171A      0.725749  
     172A      0.737212   173A      0.744347   174A      0.755398  
     175A      0.759510   176A      0.763674   177A      0.778303  
     178A      0.779901   179A      0.784792   180A      0.789590  
     181A      0.795340   182A      0.805285   183A      0.809041  
     184A      0.816102   185A      0.825551   186A      0.838208  
     187A      0.852564   188A      0.858267   189A      0.867160  
     190A      0.876480   191A      0.884657   192A      0.886146  
     193A      0.894834   194A      0.902511   195A      0.904804  
     196A      0.915470   197A      0.918114   198A      0.925754  
     199A      0.930159   200A      0.943882   201A      0.950633  
     202A      0.957557   203A      0.962878   204A      0.967202  
     205A      0.977393   206A      0.980683   207A      0.985185  
     208A      0.987292   209A      1.002754   210A      1.006371  
     211A      1.013969   212A      1.018796   213A      1.023832  
     214A      1.027112   215A      1.030116   216A      1.046939  
     217A      1.048115   218A      1.055254   219A      1.061980  
     220A      1.062916   221A      1.074404   222A      1.078101  
     223A      1.082909   224A      1.090855   225A      1.098915  
     226A      1.099463   227A      1.107971   228A      1.110536  
     229A      1.118947   230A      1.125066   231A      1.129239  
     232A      1.134403   233A      1.139902   234A      1.140730  
     235A      1.145372   236A      1.149780   237A      1.163583  
     238A      1.172532   239A      1.173015   240A      1.182924  
     241A      1.189292   242A      1.195348   243A      1.197129  
     244A      1.203510   245A      1.206779   246A      1.214922  
     247A      1.225901   248A      1.228895   249A      1.231257  
     250A      1.237883   251A      1.256056   252A      1.260890  
     253A      1.264651   254A      1.270375   255A      1.273777  
     256A      1.280992   257A      1.284370   258A      1.301633  
     259A      1.309238   260A      1.314676   261A      1.316413  
     262A      1.323210   263A      1.336916   264A      1.342527  
     265A      1.346258   266A      1.352986   267A      1.357617  
     268A      1.366114   269A      1.373377   270A      1.385887  
     271A      1.390310   272A      1.398521   273A      1.408304  
     274A      1.422041   275A      1.423880   276A      1.426400  
     277A      1.441792   278A      1.442704   279A      1.457334  
     280A      1.466243   281A      1.483251   282A      1.491524  
     283A      1.501041   284A      1.509606   285A      1.513399  
     286A      1.520631   287A      1.525949   288A      1.534834  
     289A      1.537334   290A      1.546784   291A      1.556200  
     292A      1.561140   293A      1.564868   294A      1.575551  
     295A      1.585048   296A      1.587108   297A      1.600627  
     298A      1.607128   299A      1.613550   300A      1.619771  
     301A      1.623271   302A      1.628491   303A      1.642331  
     304A      1.650788   305A      1.657181   306A      1.661845  
     307A      1.679650   308A      1.684393   309A      1.701624  
     310A      1.702432   311A      1.718094   312A      1.720208  
     313A      1.726034   314A      1.728400   315A      1.745136  
     316A      1.751569   317A      1.755844   318A      1.758365  
     319A      1.766954   320A      1.777363   321A      1.790550  
     322A      1.796025   323A      1.802464   324A      1.808638  
     325A      1.818933   326A      1.825336   327A      1.829096  
     328A      1.844174   329A      1.845709   330A      1.857654  
     331A      1.861675   332A      1.873876   333A      1.876148  
     334A      1.884628   335A      1.887446   336A      1.901801  
     337A      1.910738   338A      1.920738   339A      1.937390  
     340A      1.945276   341A      1.948207   342A      1.956507  
     343A      1.963025   344A      1.972036   345A      1.973304  
     346A      1.980845   347A      1.991117   348A      1.998149  
     349A      2.000986   350A      2.011334   351A      2.015780  
     352A      2.032760   353A      2.039128   354A      2.045876  
     355A      2.052219   356A      2.063983   357A      2.072243  
     358A      2.083452   359A      2.086967   360A      2.099495  
     361A      2.111226   362A      2.115436   363A      2.119835  
     364A      2.133154   365A      2.142895   366A      2.150306  
     367A      2.156178   368A      2.168714   369A      2.194391  
     370A      2.208441   371A      2.209229   372A      2.211955  
     373A      2.222179   374A      2.227281   375A      2.241907  
     376A      2.247250   377A      2.265788   378A      2.282892  
     379A      2.284224   380A      2.289541   381A      2.299546  
     382A      2.324156   383A      2.330045   384A      2.337000  
     385A      2.349837   386A      2.351188   387A      2.360335  
     388A      2.367339   389A      2.380267   390A      2.405889  
     391A      2.426456   392A      2.439573   393A      2.447674  
     394A      2.466298   395A      2.479664   396A      2.488070  
     397A      2.489544   398A      2.505526   399A      2.526609  
     400A      2.542535   401A      2.552235   402A      2.561693  
     403A      2.575533   404A      2.583898   405A      2.592543  
     406A      2.604393   407A      2.612198   408A      2.622501  
     409A      2.632321   410A      2.651927   411A      2.666557  
     412A      2.683174   413A      2.695733   414A      2.704641  
     415A      2.722890   416A      2.728159   417A      2.737960  
     418A      2.754284   419A      2.768523   420A      2.782261  
     421A      2.799422   422A      2.806117   423A      2.838906  
     424A      2.857686   425A      2.885290   426A      2.897479  
     427A      2.910008   428A      2.928390   429A      2.956231  
     430A      2.971595   431A      3.001782   432A      3.002082  
     433A      3.019414   434A      3.026320   435A      3.047078  
     436A      3.058217   437A      3.069003   438A      3.098939  
     439A      3.110521   440A      3.136512   441A      3.149565  
     442A      3.164811   443A      3.205836   444A      3.211008  
     445A      3.230943   446A      3.272656   447A      3.274879  
     448A      3.296534   449A      3.308331   450A      3.342671  
     451A      3.370840   452A      3.413038   453A      3.484827  
     454A      3.520381   455A      3.531686   456A      3.546210  
     457A      3.560427   458A      3.579543   459A      3.585420  
     460A      3.601028   461A      3.603508   462A      3.622135  
     463A      3.642709   464A      3.667359   465A      3.676033  
     466A      3.685753   467A      3.705924   468A      3.722074  
     469A      3.725906   470A      3.756248   471A      3.773501  
     472A      3.779546   473A      3.796238   474A      3.802574  
     475A      3.815650   476A      3.819413   477A      3.834990  
     478A      3.858534   479A      3.873404   480A      3.879941  
     481A      3.904054   482A      3.918040   483A      3.923804  
     484A      3.941495   485A      3.945531   486A      3.954725  
     487A      3.974643   488A      3.984218   489A      3.994337  
     490A      4.002761   491A      4.005422   492A      4.013590  
     493A      4.031847   494A      4.047506   495A      4.050370  
     496A      4.051930   497A      4.061696   498A      4.081313  
     499A      4.089169   500A      4.092644   501A      4.101444  
     502A      4.110412   503A      4.124234   504A      4.130147  
     505A      4.140157   506A      4.152231   507A      4.162662  
     508A      4.174493   509A      4.189997   510A      4.199884  
     511A      4.218417   512A      4.225130   513A      4.240354  
     514A      4.250455   515A      4.257992   516A      4.267746  
     517A      4.287680   518A      4.296148   519A      4.316003  
     520A      4.325850   521A      4.329625   522A      4.345016  
     523A      4.353027   524A      4.367615   525A      4.376023  
     526A      4.390765   527A      4.401410   528A      4.409221  
     529A      4.422925   530A      4.430030   531A      4.440252  
     532A      4.449611   533A      4.462283   534A      4.474641  
     535A      4.487671   536A      4.492751   537A      4.514539  
     538A      4.533161   539A      4.547152   540A      4.553144  
     541A      4.573657   542A      4.579697   543A      4.583029  
     544A      4.617161   545A      4.627240   546A      4.635482  
     547A      4.646703   548A      4.657653   549A      4.680418  
     550A      4.693172   551A      4.694514   552A      4.715238  
     553A      4.722012   554A      4.734451   555A      4.745903  
     556A      4.757030   557A      4.764725   558A      4.777757  
     559A      4.792290   560A      4.797773   561A      4.806989  
     562A      4.834777   563A      4.842237   564A      4.854881  
     565A      4.866606   566A      4.870506   567A      4.886139  
     568A      4.901735   569A      4.904404   570A      4.908719  
     571A      4.945737   572A      4.948811   573A      4.960726  
     574A      4.971517   575A      4.982735   576A      4.996701  
     577A      5.023356   578A      5.029018   579A      5.053733  
     580A      5.072862   581A      5.080043   582A      5.087875  
     583A      5.097772   584A      5.103098   585A      5.108202  
     586A      5.124765   587A      5.140875   588A      5.147538  
     589A      5.177403   590A      5.182863   591A      5.188849  
     592A      5.199496   593A      5.213059   594A      5.218636  
     595A      5.243104   596A      5.253904   597A      5.288356  
     598A      5.294138   599A      5.299333   600A      5.305459  
     601A      5.314127   602A      5.319763   603A      5.331656  
     604A      5.363950   605A      5.378490   606A      5.386259  
     607A      5.398728   608A      5.403603   609A      5.419270  
     610A      5.431312   611A      5.451966   612A      5.456050  
     613A      5.469392   614A      5.482338   615A      5.495359  
     616A      5.508407   617A      5.535718   618A      5.541310  
     619A      5.555419   620A      5.566320   621A      5.584049  
     622A      5.595839   623A      5.605750   624A      5.629592  
     625A      5.650544   626A      5.667255   627A      5.668044  
     628A      5.693096   629A      5.706757   630A      5.730004  
     631A      5.734390   632A      5.743590   633A      5.774625  
     634A      5.790092   635A      5.815646   636A      5.821272  
     637A      5.853094   638A      5.863378   639A      5.887626  
     640A      5.920529   641A      5.926361   642A      5.953933  
     643A      5.986251   644A      5.999317   645A      6.025286  
     646A      6.045082   647A      6.059810   648A      6.083201  
     649A      6.102942   650A      6.123278   651A      6.153644  
     652A      6.169785   653A      6.188136   654A      6.210813  
     655A      6.220427   656A      6.258793   657A      6.286558  
     658A      6.291668   659A      6.333252   660A      6.365649  
     661A      6.370515   662A      6.388911   663A      6.446300  
     664A      6.474163   665A      6.598828   666A      6.661834  
     667A      6.730223   668A      6.752295   669A      6.776808  
     670A      6.800168   671A      6.827611   672A      6.880318  
     673A      6.898518   674A      6.959188   675A      6.985253  
     676A      7.011242   677A      7.019813   678A      7.048899  
     679A      7.064275   680A      7.076075   681A      7.088484  
     682A      7.141632   683A      7.172525   684A      7.183414  
     685A      7.368879   686A      7.391916   687A      7.403045  
     688A      7.436748   689A      7.439918   690A      7.551372  
     691A      7.556291   692A      7.570858   693A      7.695730  
     694A      7.734075   695A      7.756994   696A      7.896608  
     697A      7.917465   698A      7.942159   699A      8.025427  
     700A      8.083660   701A      8.314687   702A      8.339500  
     703A      8.668359   704A      8.689044   705A     16.869747  
     706A     16.997712   707A     17.901519   708A     18.323140  
     709A     18.882040   710A     18.960929   711A     19.164779  
     712A     19.811292   713A     20.311380  

    Final Occupation by Irrep:
              A 
    DOCC [    36 ]

  @DF-RHF Final Energy:  -439.08353360239170

   => Energetics <=

    Nuclear Repulsion Energy =            508.7340879913537037
    One-Electron Energy =               -1608.7432752547740620
    Two-Electron Energy =                 660.9256536610284911
    Total Energy =                       -439.0835336023917534

Computation Completed

*** tstop() called on c401-054.stampede2.tacc.utexas.edu at Sun Feb 28 18:27:07 2021
Module time:
	user time   =     713.58 seconds =      11.89 minutes
	system time =      47.44 seconds =       0.79 minutes
	total time  =         40 seconds =       0.67 minutes
Total time:
	user time   =     713.58 seconds =      11.89 minutes
	system time =      47.44 seconds =       0.79 minutes
	total time  =         40 seconds =       0.67 minutes
   => Loading Basis Set <=

    Name: (AUG-CC-PVTZ AUX)
    Role: RIFIT
    Keyword: DF_BASIS_MP2
    atoms 1-2   entry O          line   264 file /home1/07844/xy3866/miniconda3/envs/p4env/share/psi4/basis/aug-cc-pvtz-ri.gbs 
    atoms 3     entry N          line   206 file /home1/07844/xy3866/miniconda3/envs/p4env/share/psi4/basis/aug-cc-pvtz-ri.gbs 
    atoms 4-9   entry C          line   148 file /home1/07844/xy3866/miniconda3/envs/p4env/share/psi4/basis/aug-cc-pvtz-ri.gbs 
    atoms 10-22 entry H          line    30 file /home1/07844/xy3866/miniconda3/envs/p4env/share/psi4/basis/aug-cc-pvtz-ri.gbs 


*** tstart() called on c401-054.stampede2.tacc.utexas.edu
*** at Sun Feb 28 18:27:08 2021


  //>>>>>>>>>>>>>>>>>>>>>>>>>>>>>>>>>>>//
  //               DFMP2               //
  //<<<<<<<<<<<<<<<<<<<<<<<<<<<<<<<<<<<//

	 --------------------------------------------------------
	                          DF-MP2                         
	      2nd-Order Density-Fitted Moller-Plesset Theory     
	              RMP2 Wavefunction,  32 Threads             
	                                                         
	        Rob Parrish, Justin Turney, Andy Simmonett,      
	           Ed Hohenstein, and C. David Sherrill          
	 --------------------------------------------------------

   => Auxiliary Basis Set <=

  Basis Set: (AUG-CC-PVTZ AUX)
    Blend: AUG-CC-PVTZ-RI
    Number of shells: 434
    Number of basis functions: 1552
    Number of Cartesian functions: 1939
    Spherical Harmonics?: true
    Max angular momentum: 4

	 --------------------------------------------------------
	                 NBF =   713, NAUX =  1552
	 --------------------------------------------------------
	   CLASS    FOCC     OCC    AOCC    AVIR     VIR    FVIR
	   PAIRS       0      36      36     677     677       0
	 --------------------------------------------------------

  DFHelper Memory: AOs need 5.833 GiB; user supplied 22.352 GiB. Using in-core AOs.


         ------------------------------------------------------------
                                     CPHF                           
                                  Rob Parrish                       
         ------------------------------------------------------------

  ==> Geometry <==

    Molecular point group: c1
    Full point group: C1

    Geometry (in Angstrom), charge = 0, multiplicity = 1:

       Center              X                  Y                   Z               Mass       
    ------------   -----------------  -----------------  -----------------  -----------------
         O           -0.107236503920     2.074811967347    -0.902952031340    15.994914619570
         O           -2.376004503920    -1.363085032653    -0.111341031340    15.994914619570
         N            2.499821496080    -1.261211032653     0.076566968660    14.003074004430
         C            1.311867496080    -0.468513032653    -0.268749031340    12.000000000000
         C            1.160694096080     0.628519767347     0.667920768660    12.000000000000
         C            0.066722496080    -1.326574032653    -0.066348031340    12.000000000000
         C           -0.027705503920     1.559163967347     0.435461968660    12.000000000000
         C           -1.219041503920    -0.538808032653    -0.291574031340    12.000000000000
         C           -1.263504503920     0.688254967347     0.613615968660    12.000000000000
         H            1.319026496080    -0.116761032653    -1.313614031340     1.007825032230
         H            1.320431496080     0.416143967347     1.682477968660     1.007825032230
         H            2.127957496080     1.400784967347     0.463622968660     1.007825032230
         H            0.079519496080    -2.195653032653    -0.736239031340     1.007825032230
         H            0.084368496080    -1.710908032653     0.964491968660     1.007825032230
         H           -0.059676503920     2.391152967347     1.156488968660     1.007825032230
         H           -1.275881503920    -0.212980032653    -1.334062031340     1.007825032230
         H           -1.316316503920     0.357380967347     1.661042968660     1.007825032230
         H           -2.164248503920     1.272667967347     0.401639968660     1.007825032230
         H            3.338365496080    -0.711587032653    -0.116481031340     1.007825032230
         H            2.551200496080    -2.070565032653    -0.543572031340     1.007825032230
         H            0.670917496080     2.643348967347    -1.040288031340     1.007825032230
         H           -2.343908503920    -1.688961032653     0.805865968660     1.007825032230

  Nuclear repulsion =  508.734087991353704
  Reference energy  = -439.083533602391697

  ==> Basis Set <==

  Basis Set: AUG-CC-PVTZ
    Blend: AUG-CC-PVTZ
    Number of shells: 243
    Number of basis functions: 713
    Number of Cartesian functions: 820
    Spherical Harmonics?: true
    Max angular momentum: 3

  ==> CGRSolver (by Rob Parrish) <==

   Number of roots    =         1
   Preconditioning    =    JACOBI
   Convergence cutoff =     1E-06
   Maximum iterations =       100

  ==> CPHFRHamiltonian (by Rob Parrish) <== 

  ==> MemDFJK: Density-Fitted J/K Matrices <==

    J tasked:                   Yes
    K tasked:                   Yes
    wK tasked:                   No
    OpenMP threads:              32
    Memory [MiB]:             22888
    Algorithm:                 Core
    Schwarz Cutoff:           1E-12
    Mask sparsity (%):       3.7500
    Fitting Condition:        1E-10

   => Auxiliary Basis Set <=

  Basis Set: (AUG-CC-PVTZ AUX)
    Blend: AUG-CC-PVTZ-JKFIT
    Number of shells: 452
    Number of basis functions: 1534
    Number of Cartesian functions: 1894
    Spherical Harmonics?: true
    Max angular momentum: 4

  ==> CPHF Iterations <==

  => Iterations <=

             Iter  Converged  Remaining    Residual
  CGR           1          0          1   8.862E-02
  CGR           2          0          1   1.823E-02
  CGR           3          0          1   7.241E-03
  CGR           4          0          1   2.090E-03
  CGR           5          0          1   5.374E-04
  CGR           6          0          1   1.548E-04
  CGR           7          0          1   4.962E-05
  CGR           8          0          1   1.450E-05
  CGR           9          0          1   4.986E-06
  CGR          10          0          1   1.377E-06
  CGR          11          1          0   4.028E-07

    CGRSolver converged.

	-----------------------------------------------------------
	 ==================> DF-MP2 Energies <==================== 
	-----------------------------------------------------------
	 Reference Energy          =    -439.0835336023916966 [Eh]
	 Singles Energy            =      -0.0000000000000000 [Eh]
	 Same-Spin Energy          =      -0.4530565249020800 [Eh]
	 Opposite-Spin Energy      =      -1.4757116825129195 [Eh]
	 Correlation Energy        =      -1.9287682074149997 [Eh]
	 Total Energy              =    -441.0123018098066723 [Eh]
	-----------------------------------------------------------
	 ================> DF-SCS-MP2 Energies <================== 
	-----------------------------------------------------------
	 SCS Same-Spin Scale       =       0.3333333333333333 [-]
	 SCS Opposite-Spin Scale   =       1.2000000000000000 [-]
	 SCS Same-Spin Energy      =      -0.1510188416340267 [Eh]
	 SCS Opposite-Spin Energy  =      -1.7708540190155033 [Eh]
	 SCS Correlation Energy    =      -1.9218728606495299 [Eh]
	 SCS Total Energy          =    -441.0054064630412540 [Eh]
	-----------------------------------------------------------



Properties will be evaluated at  -0.000000,   0.000000,  -0.000000 [a0]

Properties computed using the MP2 density matrix

  Nuclear Dipole Moment: [e a0]
     X:     4.0417      Y:    -0.2047      Z:     1.9180

  Electronic Dipole Moment: [e a0]
     X:    -3.0907      Y:     0.6156      Z:    -1.6165

  Dipole Moment: [e a0]
     X:     0.9510      Y:     0.4109      Z:     0.3015     Total:     1.0790

  Dipole Moment: [D]
     X:     2.4172      Y:     1.0443      Z:     0.7663     Total:     2.7424


*** tstop() called on c401-054.stampede2.tacc.utexas.edu at Sun Feb 28 18:30:54 2021
Module time:
	user time   =    2169.52 seconds =      36.16 minutes
	system time =      65.36 seconds =       1.09 minutes
	total time  =        226 seconds =       3.77 minutes
Total time:
	user time   =    2884.18 seconds =      48.07 minutes
	system time =     112.82 seconds =       1.88 minutes
	total time  =        267 seconds =       4.45 minutes

    Psi4 stopped on: Sunday, 28 February 2021 06:30PM
    Psi4 wall time for execution: 0:04:27.88

*** Psi4 exiting successfully. Buy a developer a beer!
