opt=Tight                                                               
Freq      RMP2-FC                                                     6-31G(d)            
Number of atoms                            I               15
Info1-9                                    I   N=           9
          24          24        1002           0           0         100
           6           2           1
Charge                                     I               -1
Multiplicity                               I                1
Number of electrons                        I               62
Number of alpha electrons                  I               31
Number of beta electrons                   I               31
Number of basis functions                  I              134
Number of independent functions            I              134
Number of point charges in /Mol/           I                0
Number of translation vectors              I                0
Atomic numbers                             I   N=          15
           8           8           8           6           6           6
           6           6           1           1           1           1
           1           1           1
Nuclear charges                            R   N=          15
  8.00000000E+00  8.00000000E+00  8.00000000E+00  6.00000000E+00  6.00000000E+00
  6.00000000E+00  6.00000000E+00  6.00000000E+00  1.00000000E+00  1.00000000E+00
  1.00000000E+00  1.00000000E+00  1.00000000E+00  1.00000000E+00  1.00000000E+00
Current cartesian coordinates              R   N=          45
  2.03060807E+00  2.53575262E+00 -1.65266052E+00 -2.12231128E+00 -2.08530421E+00
 -1.54406270E+00 -5.51929736E+00 -3.42532996E-01  4.40341002E-01  2.78519723E+00
 -7.00057863E-01  1.43841258E+00  1.18804406E+00  1.26738083E+00  1.14354717E-01
 -1.47365725E+00  1.58692748E+00  1.04577150E+00  5.14049648E+00 -1.43857111E+00
 -3.45430492E-02 -3.21299546E+00 -4.85013050E-01 -1.34426153E-01  3.29086339E+00
  8.16816374E-02  3.29639197E+00  1.57903153E+00 -2.33781878E+00  1.80753314E+00
 -1.56749979E+00  1.43380369E+00  3.11025667E+00 -2.17768608E+00  3.45529453E+00
  5.04806030E-01  4.61973941E+00 -2.24595902E+00 -1.86335369E+00  6.33467287E+00
  2.07020266E-01 -3.86228005E-01  6.24632041E+00 -2.84131812E+00  1.00391989E+00
Force Field                                I                0
Int Atom Types                             I   N=          15
           0           0           0           0           0           0
           0           0           0           0           0           0
           0           0           0
MM charges                                 R   N=          15
  0.00000000E+00  0.00000000E+00  0.00000000E+00  0.00000000E+00  0.00000000E+00
  0.00000000E+00  0.00000000E+00  0.00000000E+00  0.00000000E+00  0.00000000E+00
  0.00000000E+00  0.00000000E+00  0.00000000E+00  0.00000000E+00  0.00000000E+00
Integer atomic weights                     I   N=          15
          16          16          16          12          12          12
          12          12           1           1           1           1
           1           1           1
Real atomic weights                        R   N=          15
  1.59949146E+01  1.59949146E+01  1.59949146E+01  1.20000000E+01  1.20000000E+01
  1.20000000E+01  1.20000000E+01  1.20000000E+01  1.00782504E+00  1.00782504E+00
  1.00782504E+00  1.00782504E+00  1.00782504E+00  1.00782504E+00  1.00782504E+00
Atom fragment info                         I   N=          15
           0           0           0           0           0           0
           0           0           0           0           0           0
           0           0           0
Atom residue num                           I   N=          15
           0           0           0           0           0           0
           0           0           0           0           0           0
           0           0           0
Nuclear spins                              I   N=          15
           0           0           0           0           0           0
           0           0           1           1           1           1
           1           1           1
Nuclear ZEff                               R   N=          15
 -5.60000000E+00 -5.60000000E+00 -5.60000000E+00 -3.60000000E+00 -3.60000000E+00
 -3.60000000E+00 -3.60000000E+00 -3.60000000E+00 -1.00000000E+00 -1.00000000E+00
 -1.00000000E+00 -1.00000000E+00 -1.00000000E+00 -1.00000000E+00 -1.00000000E+00
Nuclear QMom                               R   N=          15
  0.00000000E+00  0.00000000E+00  0.00000000E+00  0.00000000E+00  0.00000000E+00
  0.00000000E+00  0.00000000E+00  0.00000000E+00  0.00000000E+00  0.00000000E+00
  0.00000000E+00  0.00000000E+00  0.00000000E+00  0.00000000E+00  0.00000000E+00
Nuclear GFac                               R   N=          15
  0.00000000E+00  0.00000000E+00  0.00000000E+00  0.00000000E+00  0.00000000E+00
  0.00000000E+00  0.00000000E+00  0.00000000E+00  2.79284600E+00  2.79284600E+00
  2.79284600E+00  2.79284600E+00  2.79284600E+00  2.79284600E+00  2.79284600E+00
MicOpt                                     I   N=          15
          -1          -1          -1          -1          -1          -1
          -1          -1          -1          -1          -1          -1
          -1          -1          -1
Number of contracted shells                I               46
Number of primitive shells                 I              116
Pure/Cartesian d shells                    I                1
Pure/Cartesian f shells                    I                0
Highest angular momentum                   I                2
Largest degree of contraction              I                6
Shell types                                I   N=          46
           0          -1          -1           2           0          -1
          -1           2           0          -1          -1           2
           0          -1          -1           2           0          -1
          -1           2           0          -1          -1           2
           0          -1          -1           2           0          -1
          -1           2           0           0           0           0
           0           0           0           0           0           0
           0           0           0           0
Number of primitives per shell             I   N=          46
           6           3           1           1           6           3
           1           1           6           3           1           1
           6           3           1           1           6           3
           1           1           6           3           1           1
           6           3           1           1           6           3
           1           1           3           1           3           1
           3           1           3           1           3           1
           3           1           3           1
Shell to atom map                          I   N=          46
           1           1           1           1           2           2
           2           2           3           3           3           3
           4           4           4           4           5           5
           5           5           6           6           6           6
           7           7           7           7           8           8
           8           8           9           9          10          10
          11          11          12          12          13          13
          14          14          15          15
Primitive exponents                        R   N=         116
  5.48467166E+03  8.25234946E+02  1.88046958E+02  5.29645000E+01  1.68975704E+01
  5.79963534E+00  1.55396162E+01  3.59993359E+00  1.01376175E+00  2.70005823E-01
  8.00000000E-01  5.48467166E+03  8.25234946E+02  1.88046958E+02  5.29645000E+01
  1.68975704E+01  5.79963534E+00  1.55396162E+01  3.59993359E+00  1.01376175E+00
  2.70005823E-01  8.00000000E-01  5.48467166E+03  8.25234946E+02  1.88046958E+02
  5.29645000E+01  1.68975704E+01  5.79963534E+00  1.55396162E+01  3.59993359E+00
  1.01376175E+00  2.70005823E-01  8.00000000E-01  3.04752488E+03  4.57369518E+02
  1.03948685E+02  2.92101553E+01  9.28666296E+00  3.16392696E+00  7.86827235E+00
  1.88128854E+00  5.44249258E-01  1.68714478E-01  8.00000000E-01  3.04752488E+03
  4.57369518E+02  1.03948685E+02  2.92101553E+01  9.28666296E+00  3.16392696E+00
  7.86827235E+00  1.88128854E+00  5.44249258E-01  1.68714478E-01  8.00000000E-01
  3.04752488E+03  4.57369518E+02  1.03948685E+02  2.92101553E+01  9.28666296E+00
  3.16392696E+00  7.86827235E+00  1.88128854E+00  5.44249258E-01  1.68714478E-01
  8.00000000E-01  3.04752488E+03  4.57369518E+02  1.03948685E+02  2.92101553E+01
  9.28666296E+00  3.16392696E+00  7.86827235E+00  1.88128854E+00  5.44249258E-01
  1.68714478E-01  8.00000000E-01  3.04752488E+03  4.57369518E+02  1.03948685E+02
  2.92101553E+01  9.28666296E+00  3.16392696E+00  7.86827235E+00  1.88128854E+00
  5.44249258E-01  1.68714478E-01  8.00000000E-01  1.87311370E+01  2.82539436E+00
  6.40121692E-01  1.61277759E-01  1.87311370E+01  2.82539436E+00  6.40121692E-01
  1.61277759E-01  1.87311370E+01  2.82539436E+00  6.40121692E-01  1.61277759E-01
  1.87311370E+01  2.82539436E+00  6.40121692E-01  1.61277759E-01  1.87311370E+01
  2.82539436E+00  6.40121692E-01  1.61277759E-01  1.87311370E+01  2.82539436E+00
  6.40121692E-01  1.61277759E-01  1.87311370E+01  2.82539436E+00  6.40121692E-01
  1.61277759E-01
Contraction coefficients                   R   N=         116
  1.83107443E-03  1.39501722E-02  6.84450781E-02  2.32714336E-01  4.70192898E-01
  3.58520853E-01 -1.10777550E-01 -1.48026263E-01  1.13076702E+00  1.00000000E+00
  1.00000000E+00  1.83107443E-03  1.39501722E-02  6.84450781E-02  2.32714336E-01
  4.70192898E-01  3.58520853E-01 -1.10777550E-01 -1.48026263E-01  1.13076702E+00
  1.00000000E+00  1.00000000E+00  1.83107443E-03  1.39501722E-02  6.84450781E-02
  2.32714336E-01  4.70192898E-01  3.58520853E-01 -1.10777550E-01 -1.48026263E-01
  1.13076702E+00  1.00000000E+00  1.00000000E+00  1.83473713E-03  1.40373228E-02
  6.88426223E-02  2.32184443E-01  4.67941348E-01  3.62311985E-01 -1.19332420E-01
 -1.60854152E-01  1.14345644E+00  1.00000000E+00  1.00000000E+00  1.83473713E-03
  1.40373228E-02  6.88426223E-02  2.32184443E-01  4.67941348E-01  3.62311985E-01
 -1.19332420E-01 -1.60854152E-01  1.14345644E+00  1.00000000E+00  1.00000000E+00
  1.83473713E-03  1.40373228E-02  6.88426223E-02  2.32184443E-01  4.67941348E-01
  3.62311985E-01 -1.19332420E-01 -1.60854152E-01  1.14345644E+00  1.00000000E+00
  1.00000000E+00  1.83473713E-03  1.40373228E-02  6.88426223E-02  2.32184443E-01
  4.67941348E-01  3.62311985E-01 -1.19332420E-01 -1.60854152E-01  1.14345644E+00
  1.00000000E+00  1.00000000E+00  1.83473713E-03  1.40373228E-02  6.88426223E-02
  2.32184443E-01  4.67941348E-01  3.62311985E-01 -1.19332420E-01 -1.60854152E-01
  1.14345644E+00  1.00000000E+00  1.00000000E+00  3.34946043E-02  2.34726953E-01
  8.13757326E-01  1.00000000E+00  3.34946043E-02  2.34726953E-01  8.13757326E-01
  1.00000000E+00  3.34946043E-02  2.34726953E-01  8.13757326E-01  1.00000000E+00
  3.34946043E-02  2.34726953E-01  8.13757326E-01  1.00000000E+00  3.34946043E-02
  2.34726953E-01  8.13757326E-01  1.00000000E+00  3.34946043E-02  2.34726953E-01
  8.13757326E-01  1.00000000E+00  3.34946043E-02  2.34726953E-01  8.13757326E-01
  1.00000000E+00
P(S=P) Contraction coefficients            R   N=         116
  0.00000000E+00  0.00000000E+00  0.00000000E+00  0.00000000E+00  0.00000000E+00
  0.00000000E+00  7.08742682E-02  3.39752839E-01  7.27158577E-01  1.00000000E+00
  0.00000000E+00  0.00000000E+00  0.00000000E+00  0.00000000E+00  0.00000000E+00
  0.00000000E+00  0.00000000E+00  7.08742682E-02  3.39752839E-01  7.27158577E-01
  1.00000000E+00  0.00000000E+00  0.00000000E+00  0.00000000E+00  0.00000000E+00
  0.00000000E+00  0.00000000E+00  0.00000000E+00  7.08742682E-02  3.39752839E-01
  7.27158577E-01  1.00000000E+00  0.00000000E+00  0.00000000E+00  0.00000000E+00
  0.00000000E+00  0.00000000E+00  0.00000000E+00  0.00000000E+00  6.89990666E-02
  3.16423961E-01  7.44308291E-01  1.00000000E+00  0.00000000E+00  0.00000000E+00
  0.00000000E+00  0.00000000E+00  0.00000000E+00  0.00000000E+00  0.00000000E+00
  6.89990666E-02  3.16423961E-01  7.44308291E-01  1.00000000E+00  0.00000000E+00
  0.00000000E+00  0.00000000E+00  0.00000000E+00  0.00000000E+00  0.00000000E+00
  0.00000000E+00  6.89990666E-02  3.16423961E-01  7.44308291E-01  1.00000000E+00
  0.00000000E+00  0.00000000E+00  0.00000000E+00  0.00000000E+00  0.00000000E+00
  0.00000000E+00  0.00000000E+00  6.89990666E-02  3.16423961E-01  7.44308291E-01
  1.00000000E+00  0.00000000E+00  0.00000000E+00  0.00000000E+00  0.00000000E+00
  0.00000000E+00  0.00000000E+00  0.00000000E+00  6.89990666E-02  3.16423961E-01
  7.44308291E-01  1.00000000E+00  0.00000000E+00  0.00000000E+00  0.00000000E+00
  0.00000000E+00  0.00000000E+00  0.00000000E+00  0.00000000E+00  0.00000000E+00
  0.00000000E+00  0.00000000E+00  0.00000000E+00  0.00000000E+00  0.00000000E+00
  0.00000000E+00  0.00000000E+00  0.00000000E+00  0.00000000E+00  0.00000000E+00
  0.00000000E+00  0.00000000E+00  0.00000000E+00  0.00000000E+00  0.00000000E+00
  0.00000000E+00  0.00000000E+00  0.00000000E+00  0.00000000E+00  0.00000000E+00
  0.00000000E+00
Coordinates of each shell                  R   N=         138
  2.03060857E+00  2.53575250E+00 -1.65265537E+00  2.03060857E+00  2.53575250E+00
 -1.65265537E+00  2.03060857E+00  2.53575250E+00 -1.65265537E+00  2.03060857E+00
  2.53575250E+00 -1.65265537E+00 -2.12231012E+00 -2.08530493E+00 -1.54405755E+00
 -2.12231012E+00 -2.08530493E+00 -1.54405755E+00 -2.12231012E+00 -2.08530493E+00
 -1.54405755E+00 -2.12231012E+00 -2.08530493E+00 -1.54405755E+00 -5.51929645E+00
 -3.42534192E-01  4.40346153E-01 -5.51929645E+00 -3.42534192E-01  4.40346153E-01
 -5.51929645E+00 -3.42534192E-01  4.40346153E-01 -5.51929645E+00 -3.42534192E-01
  4.40346153E-01  2.78519819E+00 -7.00057881E-01  1.43841773E+00  2.78519819E+00
 -7.00057881E-01  1.43841773E+00  2.78519819E+00 -7.00057881E-01  1.43841773E+00
  2.78519819E+00 -7.00057881E-01  1.43841773E+00  1.18804474E+00  1.26738059E+00
  1.14359868E-01  1.18804474E+00  1.26738059E+00  1.14359868E-01  1.18804474E+00
  1.26738059E+00  1.14359868E-01  1.18804474E+00  1.26738059E+00  1.14359868E-01
 -1.47365661E+00  1.58692686E+00  1.04577665E+00 -1.47365661E+00  1.58692686E+00
  1.04577665E+00 -1.47365661E+00  1.58692686E+00  1.04577665E+00 -1.47365661E+00
  1.58692686E+00  1.04577665E+00  5.14049755E+00 -1.43857080E+00 -3.45378985E-02
  5.14049755E+00 -1.43857080E+00 -3.45378985E-02  5.14049755E+00 -1.43857080E+00
 -3.45378985E-02  5.14049755E+00 -1.43857080E+00 -3.45378985E-02 -3.21299453E+00
 -4.85013919E-01 -1.34421003E-01 -3.21299453E+00 -4.85013919E-01 -1.34421003E-01
 -3.21299453E+00 -4.85013919E-01 -1.34421003E-01 -3.21299453E+00 -4.85013919E-01
 -1.34421003E-01  3.29086424E+00  8.16816916E-02  3.29639712E+00  3.29086424E+00
  8.16816916E-02  3.29639712E+00  1.57903272E+00 -2.33781897E+00  1.80753829E+00
  1.57903272E+00 -2.33781897E+00  1.80753829E+00 -1.56749914E+00  1.43380305E+00
  3.11026182E+00 -1.56749914E+00  1.43380305E+00  3.11026182E+00 -2.17768571E+00
  3.45529381E+00  5.04811181E-01 -2.17768571E+00  3.45529381E+00  5.04811181E-01
  4.61974059E+00 -2.24595877E+00 -1.86334854E+00  4.61974059E+00 -2.24595877E+00
 -1.86334854E+00  6.33467370E+00  2.07020753E-01 -3.86222854E-01  6.33467370E+00
  2.07020753E-01 -3.86222854E-01  6.24632168E+00 -2.84131765E+00  1.00392504E+00
  6.24632168E+00 -2.84131765E+00  1.00392504E+00
Constraint Structure                       R   N=          45
  2.03060857E+00  2.53575250E+00 -1.65265537E+00 -2.12231012E+00 -2.08530493E+00
 -1.54405755E+00 -5.51929645E+00 -3.42534192E-01  4.40346153E-01  2.78519819E+00
 -7.00057881E-01  1.43841773E+00  1.18804474E+00  1.26738059E+00  1.14359868E-01
 -1.47365661E+00  1.58692686E+00  1.04577665E+00  5.14049755E+00 -1.43857080E+00
 -3.45378985E-02 -3.21299453E+00 -4.85013919E-01 -1.34421003E-01  3.29086424E+00
  8.16816916E-02  3.29639712E+00  1.57903272E+00 -2.33781897E+00  1.80753829E+00
 -1.56749914E+00  1.43380305E+00  3.11026182E+00 -2.17768571E+00  3.45529381E+00
  5.04811181E-01  4.61974059E+00 -2.24595877E+00 -1.86334854E+00  6.33467370E+00
  2.07020753E-01 -3.86222854E-01  6.24632168E+00 -2.84131765E+00  1.00392504E+00
Num ILSW                                   I              100
ILSW                                       I   N=         100
           0           1           0           0           2           0
           0           0           0           0           0          -1
           0           0           0           0           0           0
           0           0           0           0           1           0
           1           0           0           0           0           0
           0           0      100000           0          -1           0
           0           0           0           0           0           0
           0           0           0           1           1           0
           0           0           1           0           0           0
           0           0           4          40           0           0
           0           0           0           0           0           0
           0           0           0           0           0           0
           0           0           0           0           0           0
           0           0           0           0           0           0
           0           0           0           0           0           0
           0           0           0           0           0           0
           0           0           0           0
Num RLSW                                   I               40
RLSW                                       R   N=          40
  1.00000000E+00  1.00000000E+00  1.00000000E+00  1.00000000E+00  1.00000000E+00
  0.00000000E+00  0.00000000E+00  1.00000000E+00  0.00000000E+00  0.00000000E+00
  0.00000000E+00  0.00000000E+00  1.00000000E+00  0.00000000E+00  0.00000000E+00
  0.00000000E+00  0.00000000E+00  1.00000000E+00  0.00000000E+00  0.00000000E+00
  0.00000000E+00  0.00000000E+00  1.00000000E+00  0.00000000E+00  0.00000000E+00
  0.00000000E+00  0.00000000E+00  1.00000000E+00  0.00000000E+00  0.00000000E+00
  0.00000000E+00  0.00000000E+00  0.00000000E+00  0.00000000E+00  0.00000000E+00
  0.00000000E+00  0.00000000E+00  0.00000000E+00  1.00000000E+00  1.00000000E+00
MxBond                                     I                4
NBond                                      I   N=          15
           1           1           1           4           3           4
           4           3           1           1           1           1
           1           1           1
IBond                                      I   N=          60
           5           0           0           0           8           0
           0           0           8           0           0           0
           5           7           9          10           1           4
           6           0           5           8          11          12
           4          13          14          15           2           3
           6           0           4           0           0           0
           4           0           0           0           6           0
           0           0           6           0           0           0
           7           0           0           0           7           0
           0           0           7           0           0           0
RBond                                      R   N=          60
  2.00000000E+00  0.00000000E+00  0.00000000E+00  0.00000000E+00  2.00000000E+00
  0.00000000E+00  0.00000000E+00  0.00000000E+00  2.00000000E+00  0.00000000E+00
  0.00000000E+00  0.00000000E+00  1.00000000E+00  1.00000000E+00  1.00000000E+00
  1.00000000E+00  2.00000000E+00  1.00000000E+00  1.00000000E+00  0.00000000E+00
  1.00000000E+00  1.00000000E+00  1.00000000E+00  1.00000000E+00  1.00000000E+00
  1.00000000E+00  1.00000000E+00  1.00000000E+00  2.00000000E+00  2.00000000E+00
  1.00000000E+00  0.00000000E+00  1.00000000E+00  0.00000000E+00  0.00000000E+00
  0.00000000E+00  1.00000000E+00  0.00000000E+00  0.00000000E+00  0.00000000E+00
  1.00000000E+00  0.00000000E+00  0.00000000E+00  0.00000000E+00  1.00000000E+00
  0.00000000E+00  0.00000000E+00  0.00000000E+00  1.00000000E+00  0.00000000E+00
  0.00000000E+00  0.00000000E+00  1.00000000E+00  0.00000000E+00  0.00000000E+00
  0.00000000E+00  1.00000000E+00  0.00000000E+00  0.00000000E+00  0.00000000E+00
Virial Ratio                               R      2.002622251880944E+00
SCF Energy                                 R     -4.181419160597429E+02
MP2 Energy                                 R     -4.193166845711746E+02
Total Energy                               R     -4.193166845711746E+02
Post-SCF wavefunction norm                 R      1.652523793355657E+00
RMS Force                                  R      4.654714561553792E-06
RMS Density                                R      1.206495748208910E-09
External E-field                           R   N=          35
  0.00000000E+00  0.00000000E+00  0.00000000E+00  0.00000000E+00  0.00000000E+00
  0.00000000E+00  0.00000000E+00  0.00000000E+00  0.00000000E+00  0.00000000E+00
  0.00000000E+00  0.00000000E+00  0.00000000E+00  0.00000000E+00  0.00000000E+00
  0.00000000E+00  0.00000000E+00  0.00000000E+00  0.00000000E+00  0.00000000E+00
  0.00000000E+00  0.00000000E+00  0.00000000E+00  0.00000000E+00  0.00000000E+00
  0.00000000E+00  0.00000000E+00  0.00000000E+00  0.00000000E+00  0.00000000E+00
  0.00000000E+00  0.00000000E+00  0.00000000E+00  0.00000000E+00  0.00000000E+00
IOpCl                                      I                0
IROHF                                      I                0
Alpha Orbital Energies                     R   N=         134
 -2.05418382E+01 -2.04767037E+01 -2.04733499E+01 -1.13244706E+01 -1.13244539E+01
 -1.12231525E+01 -1.12149813E+01 -1.12120990E+01 -1.36506104E+00 -1.34056553E+00
 -1.24172907E+00 -1.05185283E+00 -9.94088610E-01 -8.70266347E-01 -7.33718141E-01
 -6.88605529E-01 -6.41489575E-01 -6.30693780E-01 -6.15006035E-01 -5.90906780E-01
 -5.74976047E-01 -5.60446502E-01 -5.23772131E-01 -5.08269811E-01 -4.97738396E-01
 -4.89323296E-01 -4.72062590E-01 -4.09561207E-01 -3.84781961E-01 -3.71164599E-01
 -3.67758393E-01  1.71490582E-01  2.41409997E-01  2.53317005E-01  2.75879469E-01
  3.10630454E-01  3.19433432E-01  3.33623182E-01  3.47078706E-01  3.59474265E-01
  4.09792769E-01  4.21266874E-01  4.67266351E-01  4.94617282E-01  5.12739980E-01
  5.49403889E-01  6.34094798E-01  7.21992976E-01  7.50296839E-01  7.86914783E-01
  8.09371276E-01  8.36194805E-01  8.57670822E-01  8.82044453E-01  8.92815841E-01
  9.21928838E-01  9.44571021E-01  9.56735256E-01  9.85487256E-01  1.02863131E+00
  1.04771686E+00  1.05203459E+00  1.11124640E+00  1.11459355E+00  1.12972151E+00
  1.14951941E+00  1.15825086E+00  1.17715910E+00  1.18823228E+00  1.20004898E+00
  1.22768474E+00  1.23839950E+00  1.24832432E+00  1.26724226E+00  1.31324439E+00
  1.34234397E+00  1.36046503E+00  1.40726967E+00  1.41221565E+00  1.44961018E+00
  1.53121880E+00  1.67236749E+00  1.70391116E+00  1.73544547E+00  1.75882722E+00
  1.79598585E+00  1.82887343E+00  1.88925086E+00  1.92595192E+00  1.98503597E+00
  2.04595875E+00  2.08025918E+00  2.09377304E+00  2.11312867E+00  2.14820478E+00
  2.16957460E+00  2.19974077E+00  2.20446742E+00  2.21705830E+00  2.25791854E+00
  2.27924153E+00  2.30855947E+00  2.31648654E+00  2.34977456E+00  2.35398916E+00
  2.42502614E+00  2.46930294E+00  2.52407673E+00  2.56078939E+00  2.64337396E+00
  2.66005817E+00  2.68356096E+00  2.70420003E+00  2.79782372E+00  2.82630651E+00
  2.85716241E+00  2.91569790E+00  2.97406823E+00  3.07869984E+00  3.14933637E+00
  3.21541460E+00  3.28492000E+00  3.34177527E+00  3.36056224E+00  3.39410868E+00
  3.54178325E+00  4.30890534E+00  4.43960592E+00  4.55328277E+00  4.62342301E+00
  4.67398787E+00  4.81067760E+00  4.95691902E+00  5.00018385E+00
Alpha MO coefficients                      R   N=       17956
  9.94686701E-01  2.09495661E-02 -5.09536271E-04 -7.59740224E-04  1.06949890E-03
  4.54495268E-03  3.10326695E-05  2.33066566E-05 -2.18496833E-05 -3.90007632E-03
 -3.95637964E-03 -3.88149766E-03 -2.48428794E-05 -1.34605249E-04 -2.37412735E-04
 -1.19524851E-05  2.54281424E-06  4.92656509E-06  3.26522148E-06  4.82723186E-06
  3.30232184E-05  6.18889811E-07  1.05908716E-05 -3.81095250E-06  4.50546171E-06
  1.45490612E-05  1.31126605E-05  2.78908988E-06  1.66475682E-06 -7.69015779E-06
  8.82503507E-06  4.95543264E-05  2.66699963E-06  1.01465814E-06 -9.98939509E-07
 -2.96069662E-04 -8.76139962E-05  1.19797661E-06  1.84826306E-05  1.83197821E-05
  3.54828546E-05  3.65604491E-05  6.47049375E-07  3.68978683E-06 -6.50143293E-07
 -1.50851749E-06  9.32116375E-06 -3.31323405E-07 -2.34057322E-05  2.19076266E-05
 -1.15744095E-04  2.03076783E-04 -6.40768771E-05 -2.11434828E-05  1.78909398E-05
 -3.20678656E-05 -3.65792448E-05 -1.64696522E-05 -1.33938515E-05  2.35659982E-05
 -1.03845201E-05  4.38256733E-04  8.31033625E-06  1.65683597E-05 -8.14430416E-06
 -6.02555844E-05 -2.48103287E-04 -4.06120600E-04  4.83740323E-04 -1.46528203E-04
 -2.48790092E-04 -4.24155899E-04 -1.42396571E-04  2.05822807E-04  3.01961255E-04
 -3.34964986E-06  6.74390498E-06 -2.21874656E-05 -1.17738036E-05  1.90656387E-05
 -8.28612210E-05 -8.71704452E-05  4.01693873E-05 -3.84727057E-05 -1.78316485E-05
 -1.04905881E-05 -3.84575182E-05 -3.32598823E-05  2.58429634E-05  9.17851152E-06
  3.46919101E-06  2.10502419E-05 -9.34851213E-06  9.10254675E-06 -1.36094529E-05
 -8.22303475E-05  1.03372931E-04 -5.05027100E-05 -7.93853699E-06  4.17343034E-07
  2.36556647E-06 -5.84851121E-06  4.37769014E-07  1.02840056E-05 -1.78394457E-06
  7.85880663E-06  1.86329003E-05  4.36384986E-06  1.11883953E-06 -2.92390065E-07
  2.07979553E-05 -2.17596244E-04  1.23750785E-05  6.23870182E-05  2.57050041E-05
  1.28665561E-05  1.83174554E-05  2.82987051E-06 -4.58338832E-06 -3.67484632E-06
  1.11240751E-05 -2.51519348E-05  5.37505057E-06  3.02381088E-05  1.04704194E-05
 -9.75781528E-06  7.23782382E-06 -5.61508149E-05  2.07639661E-05 -1.05924359E-05
  2.84705674E-05 -6.24600707E-05 -3.06919631E-06 -4.93846016E-05  5.08173832E-06
 -5.00049043E-05  5.21544867E-06  3.14092052E-06 -2.80594356E-06  2.93561943E-04
 -7.40439696E-05 -5.31398895E-05  5.38643356E-05 -2.37665175E-05 -2.27113415E-05
 -2.96947978E-05  7.81261503E-06 -6.28217347E-06 -2.08702191E-06  9.94675902E-01
  2.10011782E-02 -5.86406277E-04  8.58195323E-04  7.57332049E-04  4.14028040E-03
  9.11798089E-05 -1.23039588E-04 -1.11233000E-04 -3.88588841E-03 -3.89506186E-03
 -3.95447758E-03 -1.42936413E-05 -4.71008069E-05  1.33200095E-04 -4.78415381E-03
 -1.74970712E-04  5.87993944E-07  2.45179609E-05  1.91935475E-05  4.41103223E-04
  2.07138486E-04  3.23778971E-05 -2.64392778E-05  6.70723654E-05 -6.65327733E-05
 -8.29626805E-05  8.69751082E-05  3.06764997E-05 -1.44402427E-05  4.48105473E-06
  8.14461093E-06 -1.46936350E-05  3.45684570E-06 -2.37664824E-05 -7.25023483E-05
  2.84199767E-05 -6.53289190E-05  1.22255509E-04  1.05486411E-05  1.98225123E-06
  1.73008736E-05  4.87320346E-06  4.20820909E-06  8.23655670E-06  1.08710153E-05
  5.60072477E-05 -2.59623379E-06 -2.08493297E-05 -7.24980730E-06 -3.40242950E-04
  1.68293805E-04 -8.29374821E-05  1.66939472E-04  2.38572501E-06  1.54808337E-05
  7.43971210E-06 -1.21686544E-05  2.50367801E-06  1.43284578E-06 -6.48530032E-06
 -6.80531192E-06  7.07326803E-06  3.41572856E-05  2.36707984E-05  1.86744204E-04
  9.43623550E-05  4.27307826E-05 -8.02521646E-05  1.42561139E-05 -6.02396568E-05
 -4.08048358E-05  3.68564092E-06 -1.68271057E-05 -3.12505416E-05 -5.24070661E-06
 -1.81457955E-05  3.53752062E-06  2.90477572E-06  5.94307344E-06  1.29070821E-04
 -5.61466240E-05  3.05440662E-06 -4.99027727E-05 -2.80970274E-06 -1.11088133E-05
 -1.43232565E-05 -5.66487985E-07  4.62364540E-06  2.90071031E-06 -9.79752576E-06
  5.04379176E-04  8.27601934E-05 -9.43738361E-05 -9.17579929E-05 -4.41424901E-04
  1.54556183E-04  1.51122386E-04  1.11024470E-04 -2.29011752E-04 -2.73233449E-04
 -2.34970482E-04  2.04653069E-04  1.89992237E-04 -2.19414172E-04 -1.04708596E-05
 -4.36830670E-05  3.53280377E-05 -1.29703804E-04  5.95128770E-06  5.10363345E-07
 -4.09500395E-06 -3.51351024E-05 -1.89157381E-06 -6.53966202E-05 -3.92632621E-06
 -4.76642646E-06 -1.29679580E-06  7.19249773E-06  5.06022350E-07 -1.13331544E-05
  2.99938140E-06  1.08709254E-06 -1.72456133E-08  7.10010715E-05 -4.08106970E-05
 -1.33305515E-05  8.57549784E-06 -3.74477794E-06 -6.26848895E-06 -7.58701341E-06
  4.80344159E-06 -3.18960194E-06  1.88036957E-06  4.75765296E-03  5.02317472E-05
  2.16897213E-05  1.66767675E-05  8.34029482E-06  2.99419211E-04 -3.05312728E-05
  1.12605881E-04  8.76761970E-05 -1.32669294E-04  1.46091658E-05 -4.25850047E-05
  2.12126340E-05  2.43643082E-05  8.95295947E-05  9.94672684E-01  2.09947008E-02
  1.26695734E-03 -8.20770199E-05 -3.17913218E-04  4.30014624E-03 -1.07151260E-04
 -3.82121959E-06  1.73072499E-05 -3.76978034E-03 -3.95673997E-03 -3.98991677E-03
  1.36613075E-05 -5.57697025E-05  7.71553826E-05  1.17498387E-06  8.91894868E-07
 -7.13962227E-06  3.90607829E-06 -2.91396147E-06  1.59794890E-06 -4.34795776E-06
 -3.65187141E-05  9.99972120E-06  7.66054333E-06  1.27135207E-07  3.69646989E-06
 -4.78043472E-07  8.10497618E-07  4.25162614E-06  8.24373803E-06  4.00017366E-05
 -7.88595277E-06 -4.36391013E-06  2.47164432E-06 -3.11255926E-04  1.85539893E-04
 -1.43922644E-05  8.62844953E-06  2.07595683E-06  1.41163372E-05  1.59106883E-05
 -8.61149824E-06 -3.11979518E-06  5.80953107E-06 -6.24511000E-06 -6.25002255E-07
  2.91972273E-05  1.51545696E-05  4.92980520E-06  1.90606728E-04  1.84657756E-04