
    -----------------------------------------------------------------------
          Psi4: An Open-Source Ab Initio Electronic Structure Package
                               Psi4 1.4a3.dev225 

                         Git: Rev {master} 7105e37 


    D. G. A. Smith, L. A. Burns, A. C. Simmonett, R. M. Parrish,
    M. C. Schieber, R. Galvelis, P. Kraus, H. Kruse, R. Di Remigio,
    A. Alenaizan, A. M. James, S. Lehtola, J. P. Misiewicz, M. Scheurer,
    R. A. Shaw, J. B. Schriber, Y. Xie, Z. L. Glick, D. A. Sirianni,
    J. S. O'Brien, J. M. Waldrop, A. Kumar, E. G. Hohenstein,
    B. P. Pritchard, B. R. Brooks, H. F. Schaefer III, A. Yu. Sokolov,
    K. Patkowski, A. E. DePrince III, U. Bozkaya, R. A. King,
    F. A. Evangelista, J. M. Turney, T. D. Crawford, C. D. Sherrill,
    J. Chem. Phys. 152(18) 184108 (2020). https://doi.org/10.1063/5.0006002

                            Additional Code Authors
    E. T. Seidl, C. L. Janssen, E. F. Valeev, M. L. Leininger,
    J. F. Gonthier, R. M. Richard, H. R. McAlexander, M. Saitow, X. Wang,
    P. Verma, and M. H. Lechner

             Previous Authors, Complete List of Code Contributors,
                       and Citations for Specific Modules
    https://github.com/psi4/psi4/blob/master/codemeta.json
    https://github.com/psi4/psi4/graphs/contributors
    http://psicode.org/psi4manual/master/introduction.html#citing-psifour

    -----------------------------------------------------------------------


    Psi4 started on: Thursday, 01 April 2021 03:28AM

    Process ID: 87818
    Host:       c451-083.stampede2.tacc.utexas.edu
    PSIDATADIR: /home1/07844/xy3866/miniconda3/envs/p4env/share/psi4
    Memory:     500.0 MiB
    Threads:    8
    
  ==> Input File <==

--------------------------------------------------------------------------
#psi4
#
memory 32 gb

molecule  {
0 1
  O        2.7820080    -0.8809860    -0.0002600
  C       -0.3718440     0.9737870     0.0000910
  C        0.5095440    -0.1275560    -0.0000600
  C       -1.7466600     0.7087270     0.0002000
  C        0.0166350    -1.4400920    -0.0001140
  C        0.1123110     2.4052290     0.0001630
  C       -2.2387310    -0.5972210     0.0001460
  C       -1.3536090    -1.6782430    -0.0000090
  C        1.9816290     0.0523060    -0.0001740
  H       -2.4586535     1.5584055     0.0003202
  H        0.7339320    -2.2568560    -0.0002320
  H        0.7165080     2.6337130    -0.8832360
  H       -0.7427470     3.0862090     0.0002150
  H        0.7165360     2.6336080     0.8835710
  H       -3.3126640    -0.7693710     0.0002300
  H       -1.7319890    -2.6973870    -0.0000530
  H        2.3545140     1.0932780    -0.0001810
units angstrom
no_reorient  #important for SAPT in psi4, default
symmetry c1  #important for SAPT in psi4, default
}

set PROPERTIES_ORIGIN ["COM"]
properties('MP2/aug-cc-pvtz', properties = ['dipole'])
--------------------------------------------------------------------------

  Memory set to  29.802 GiB by Python driver.
    SCF Algorithm Type (re)set to DF.

*** tstart() called on c451-083.stampede2.tacc.utexas.edu
*** at Thu Apr  1 03:28:11 2021

   => Loading Basis Set <=

    Name: AUG-CC-PVTZ
    Role: ORBITAL
    Keyword: BASIS
    atoms 1     entry O          line   331 file /home1/07844/xy3866/miniconda3/envs/p4env/share/psi4/basis/aug-cc-pvtz.gbs 
    atoms 2-9   entry C          line   239 file /home1/07844/xy3866/miniconda3/envs/p4env/share/psi4/basis/aug-cc-pvtz.gbs 
    atoms 10-17 entry H          line    40 file /home1/07844/xy3866/miniconda3/envs/p4env/share/psi4/basis/aug-cc-pvtz.gbs 


         ---------------------------------------------------------
                                   SCF
               by Justin Turney, Rob Parrish, Andy Simmonett
                          and Daniel G. A. Smith
                              RHF Reference
                        8 Threads,  30517 MiB Core
         ---------------------------------------------------------

  ==> Geometry <==

    Molecular point group: c1
    Full point group: C1

    Geometry (in Angstrom), charge = 0, multiplicity = 1:

       Center              X                  Y                   Z               Mass       
    ------------   -----------------  -----------------  -----------------  -----------------
         O            2.751559492839    -0.837630749227    -0.000254973116    15.994914619570
         C           -0.402292507161     1.017142250773     0.000096026884    12.000000000000
         C            0.479095492839    -0.084200749227    -0.000054973116    12.000000000000
         C           -1.777108507161     0.752082250773     0.000205026884    12.000000000000
         C           -0.013813507161    -1.396736749227    -0.000108973116    12.000000000000
         C            0.081862492839     2.448584250773     0.000168026884    12.000000000000
         C           -2.269179507161    -0.553865749227     0.000151026884    12.000000000000
         C           -1.384057507161    -1.634887749227    -0.000003973116    12.000000000000
         C            1.951180492839     0.095661250773    -0.000168973116    12.000000000000
         H           -2.489102007161     1.601760750773     0.000325226884     1.007825032230
         H            0.703483492839    -2.213500749227    -0.000226973116     1.007825032230
         H            0.686059492839     2.677068250773    -0.883230973116     1.007825032230
         H           -0.773195507161     3.129564250773     0.000220026884     1.007825032230
         H            0.686087492839     2.676963250773     0.883576026884     1.007825032230
         H           -3.343112507161    -0.726015749227     0.000235026884     1.007825032230
         H           -1.762437507161    -2.654031749227    -0.000047973116     1.007825032230
         H            2.324065492839     1.136633250773    -0.000175973116     1.007825032230

  Running in c1 symmetry.

  Rotational constants: A =      0.08271  B =      0.05200  C =      0.03212 [cm^-1]
  Rotational constants: A =   2479.68144  B =   1558.79003  C =    962.85708 [MHz]
  Nuclear repulsion =  401.852152437113944

  Charge       = 0
  Multiplicity = 1
  Electrons    = 64
  Nalpha       = 32
  Nbeta        = 32

  ==> Algorithm <==

  SCF Algorithm Type is DF.
  DIIS enabled.
  MOM disabled.
  Fractional occupation disabled.
  Guess Type is SAD.
  Energy threshold   = 1.00e-10
  Density threshold  = 1.00e-10
  Integral threshold = 1.00e-12

  ==> Primary Basis <==

  Basis Set: AUG-CC-PVTZ
    Blend: AUG-CC-PVTZ
    Number of shells: 198
    Number of basis functions: 598
    Number of Cartesian functions: 695
    Spherical Harmonics?: true
    Max angular momentum: 3

   => Loading Basis Set <=

    Name: (AUG-CC-PVTZ AUX)
    Role: JKFIT
    Keyword: DF_BASIS_SCF
    atoms 1     entry O          line   286 file /home1/07844/xy3866/miniconda3/envs/p4env/share/psi4/basis/aug-cc-pvtz-jkfit.gbs 
    atoms 2-9   entry C          line   162 file /home1/07844/xy3866/miniconda3/envs/p4env/share/psi4/basis/aug-cc-pvtz-jkfit.gbs 
    atoms 10-17 entry H          line    70 file /home1/07844/xy3866/miniconda3/envs/p4env/share/psi4/basis/aug-cc-pvtz-jkfit.gbs 

  ==> Integral Setup <==

  DFHelper Memory: AOs need 3.347 GiB; user supplied 22.352 GiB. Using in-core AOs.

  ==> MemDFJK: Density-Fitted J/K Matrices <==

    J tasked:                   Yes
    K tasked:                   Yes
    wK tasked:                   No
    OpenMP threads:               8
    Memory [MiB]:             22888
    Algorithm:                 Core
    Schwarz Cutoff:           1E-12
    Mask sparsity (%):       6.7169
    Fitting Condition:        1E-10

   => Auxiliary Basis Set <=

  Basis Set: (AUG-CC-PVTZ AUX)
    Blend: AUG-CC-PVTZ-JKFIT
    Number of shells: 382
    Number of basis functions: 1304
    Number of Cartesian functions: 1619
    Spherical Harmonics?: true
    Max angular momentum: 4

  Minimum eigenvalue in the overlap matrix is 5.6058744824E-07.
  Reciprocal condition number of the overlap matrix is 2.9585671111E-08.
    Using symmetric orthogonalization.

  ==> Pre-Iterations <==

  SCF Guess: Superposition of Atomic Densities via on-the-fly atomic UHF (no occupation information).

   -------------------------
    Irrep   Nso     Nmo    
   -------------------------
     A        598     598 
   -------------------------
    Total     598     598
   -------------------------

  ==> Iterations <==

                           Total Energy        Delta E     RMS |[F,P]|

   @DF-RHF iter SAD:  -381.76259212825198   -3.81763e+02   0.00000e+00 
   @DF-RHF iter   1:  -382.33638366916676   -5.73792e-01   1.12074e-03 DIIS
   @DF-RHF iter   2:  -382.53596016100829   -1.99576e-01   6.13737e-04 DIIS
   @DF-RHF iter   3:  -382.58928230940307   -5.33221e-02   1.36775e-04 DIIS
   @DF-RHF iter   4:  -382.59288737410270   -3.60506e-03   5.85419e-05 DIIS
   @DF-RHF iter   5:  -382.59353835638592   -6.50982e-04   1.12814e-05 DIIS
   @DF-RHF iter   6:  -382.59357992424219   -4.15679e-05   4.95109e-06 DIIS
   @DF-RHF iter   7:  -382.59358924557017   -9.32133e-06   1.89814e-06 DIIS
   @DF-RHF iter   8:  -382.59359094700955   -1.70144e-06   8.83236e-07 DIIS
   @DF-RHF iter   9:  -382.59359132129276   -3.74283e-07   3.33644e-07 DIIS
   @DF-RHF iter  10:  -382.59359137936360   -5.80708e-08   8.61000e-08 DIIS
   @DF-RHF iter  11:  -382.59359138450685   -5.14325e-09   3.37889e-08 DIIS
   @DF-RHF iter  12:  -382.59359138526230   -7.55449e-10   1.64941e-08 DIIS
   @DF-RHF iter  13:  -382.59359138546228   -1.99975e-10   7.85469e-09 DIIS
   @DF-RHF iter  14:  -382.59359138552884   -6.65636e-11   3.86671e-09 DIIS
   @DF-RHF iter  15:  -382.59359138554248   -1.36424e-11   1.32708e-09 DIIS
   @DF-RHF iter  16:  -382.59359138554305   -5.68434e-13   5.24371e-10 DIIS
   @DF-RHF iter  17:  -382.59359138554282    2.27374e-13   1.75625e-10 DIIS
   @DF-RHF iter  18:  -382.59359138554362   -7.95808e-13   5.19907e-11 DIIS
  Energy and wave function converged.


  ==> Post-Iterations <==

    Orbital Energies [Eh]
    ---------------------

    Doubly Occupied:                                                      

       1A    -20.552186     2A    -11.334968     3A    -11.270324  
       4A    -11.257786     5A    -11.252359     6A    -11.248893  
       7A    -11.247976     8A    -11.244497     9A    -11.243760  
      10A     -1.376916    11A     -1.171995    12A     -1.065443  
      13A     -1.039432    14A     -0.955094    15A     -0.889978  
      16A     -0.821055    17A     -0.786481    18A     -0.708219  
      19A     -0.673712    20A     -0.644481    21A     -0.617866  
      22A     -0.608607    23A     -0.597548    24A     -0.585312  
      25A     -0.557869    26A     -0.538498    27A     -0.518853  
      28A     -0.501805    29A     -0.491654    30A     -0.425580  
      31A     -0.349102    32A     -0.342860  

    Virtual:                                                              

      33A      0.024469    34A      0.028860    35A      0.036077  
      36A      0.043198    37A      0.045176    38A      0.049904  
      39A      0.056533    40A      0.063605    41A      0.068703  
      42A      0.084395    43A      0.089481    44A      0.092701  
      45A      0.103031    46A      0.103359    47A      0.109773  
      48A      0.114679    49A      0.120841    50A      0.123712  
      51A      0.123990    52A      0.127944    53A      0.132362  
      54A      0.133966    55A      0.140331    56A      0.147172  
      57A      0.148558    58A      0.153508    59A      0.156593  
      60A      0.156793    61A      0.159826    62A      0.171139  
      63A      0.180777    64A      0.184658    65A      0.193795  
      66A      0.194411    67A      0.197941    68A      0.209778  
      69A      0.222398    70A      0.227768    71A      0.231748  
      72A      0.240476    73A      0.250082    74A      0.256402  
      75A      0.260179    76A      0.260418    77A      0.272180  
      78A      0.275972    79A      0.276261    80A      0.285619  
      81A      0.294522    82A      0.298362    83A      0.302856  
      84A      0.314331    85A      0.322575    86A      0.324795  
      87A      0.325699    88A      0.333461    89A      0.336921  
      90A      0.336950    91A      0.348802    92A      0.353762  
      93A      0.359728    94A      0.361146    95A      0.362411  
      96A      0.380387    97A      0.381753    98A      0.387637  
      99A      0.400493   100A      0.405333   101A      0.405778  
     102A      0.406073   103A      0.414624   104A      0.418998  
     105A      0.425535   106A      0.429999   107A      0.437514  
     108A      0.441558   109A      0.444509   110A      0.450925  
     111A      0.453865   112A      0.460014   113A      0.460939  
     114A      0.472370   115A      0.474875   116A      0.479762  
     117A      0.483729   118A      0.484703   119A      0.492721  
     120A      0.495217   121A      0.500124   122A      0.504334  
     123A      0.506934   124A      0.515506   125A      0.520115  
     126A      0.524973   127A      0.531752   128A      0.532498  
     129A      0.539182   130A      0.541697   131A      0.542385  
     132A      0.548390   133A      0.556511   134A      0.561388  
     135A      0.571833   136A      0.581556   137A      0.592096  
     138A      0.595244   139A      0.611534   140A      0.626983  
     141A      0.635606   142A      0.636077   143A      0.653246  
     144A      0.653692   145A      0.661824   146A      0.666022  
     147A      0.669990   148A      0.687916   149A      0.694479  
     150A      0.696699   151A      0.707585   152A      0.713159  
     153A      0.715951   154A      0.717919   155A      0.747409  
     156A      0.747493   157A      0.761549   158A      0.762479  
     159A      0.768439   160A      0.773669   161A      0.786459  
     162A      0.795962   163A      0.804807   164A      0.822260  
     165A      0.826645   166A      0.841404   167A      0.842754  
     168A      0.847150   169A      0.851575   170A      0.854275  
     171A      0.858349   172A      0.866658   173A      0.876370  
     174A      0.878726   175A      0.879283   176A      0.887649  
     177A      0.888391   178A      0.902127   179A      0.909513  
     180A      0.910223   181A      0.918098   182A      0.919233  
     183A      0.924355   184A      0.926337   185A      0.936735  
     186A      0.940033   187A      0.950428   188A      0.956837  
     189A      0.959017   190A      0.968863   191A      0.972130  
     192A      0.977148   193A      0.989726   194A      0.999459  
     195A      1.001671   196A      1.004752   197A      1.018324  
     198A      1.030143   199A      1.033071   200A      1.035992  
     201A      1.044670   202A      1.049185   203A      1.059257  
     204A      1.062274   205A      1.065490   206A      1.067616  
     207A      1.074598   208A      1.075423   209A      1.090450  
     210A      1.091542   211A      1.097336   212A      1.099057  
     213A      1.100380   214A      1.108153   215A      1.125920  
     216A      1.130700   217A      1.137672   218A      1.140859  
     219A      1.151334   220A      1.154467   221A      1.163048  
     222A      1.175239   223A      1.186275   224A      1.190940  
     225A      1.193814   226A      1.199362   227A      1.209363  
     228A      1.218365   229A      1.225361   230A      1.227016  
     231A      1.229360   232A      1.234972   233A      1.237200  
     234A      1.247232   235A      1.265873   236A      1.273038  
     237A      1.275605   238A      1.288127   239A      1.302089  
     240A      1.314017   241A      1.318101   242A      1.338799  
     243A      1.347822   244A      1.349821   245A      1.359584  
     246A      1.369713   247A      1.373898   248A      1.376100  
     249A      1.385822   250A      1.399377   251A      1.416946  
     252A      1.423961   253A      1.424496   254A      1.433770  
     255A      1.442719   256A      1.458708   257A      1.470085  
     258A      1.476167   259A      1.493612   260A      1.503179  
     261A      1.505709   262A      1.521911   263A      1.535345  
     264A      1.556921   265A      1.562328   266A      1.566152  
     267A      1.575087   268A      1.578051   269A      1.584988  
     270A      1.590245   271A      1.601583   272A      1.619516  
     273A      1.643556   274A      1.645902   275A      1.658982  
     276A      1.664775   277A      1.675284   278A      1.675750  
     279A      1.681885   280A      1.690848   281A      1.713433  
     282A      1.724726   283A      1.738352   284A      1.751873  
     285A      1.755184   286A      1.777462   287A      1.785581  
     288A      1.787181   289A      1.798569   290A      1.805267  
     291A      1.817644   292A      1.830726   293A      1.831721  
     294A      1.852804   295A      1.861055   296A      1.863657  
     297A      1.867190   298A      1.887915   299A      1.888175  
     300A      1.907182   301A      1.912723   302A      1.921262  
     303A      1.921313   304A      1.934086   305A      1.939413  
     306A      1.958768   307A      1.985298   308A      1.994362  
     309A      2.004293   310A      2.018332   311A      2.026457  
     312A      2.034332   313A      2.039830   314A      2.041401  
     315A      2.053570   316A      2.071344   317A      2.082706  
     318A      2.084617   319A      2.096781   320A      2.112175  
     321A      2.115561   322A      2.135140   323A      2.140986  
     324A      2.143869   325A      2.160269   326A      2.172782  
     327A      2.184491   328A      2.195362   329A      2.202564  
     330A      2.220196   331A      2.229671   332A      2.241353  
     333A      2.245312   334A      2.253022   335A      2.266927  
     336A      2.278978   337A      2.305939   338A      2.321090  
     339A      2.331163   340A      2.355423   341A      2.360636  
     342A      2.367105   343A      2.375057   344A      2.403928  
     345A      2.414783   346A      2.435042   347A      2.447193  
     348A      2.468217   349A      2.483011   350A      2.494691  
     351A      2.500786   352A      2.526571   353A      2.537659  
     354A      2.566466   355A      2.571523   356A      2.584543  
     357A      2.594309   358A      2.611195   359A      2.639911  
     360A      2.648452   361A      2.688858   362A      2.708641  
     363A      2.730131   364A      2.749511   365A      2.759001  
     366A      2.771345   367A      2.799390   368A      2.838063  
     369A      2.851885   370A      2.875862   371A      2.883956  
     372A      2.895139   373A      2.946693   374A      2.948831  
     375A      2.987296   376A      3.048462   377A      3.073233  
     378A      3.139693   379A      3.186328   380A      3.191847  
     381A      3.208398   382A      3.219730   383A      3.243580  
     384A      3.249553   385A      3.252257   386A      3.291579  
     387A      3.299455   388A      3.318470   389A      3.327270  
     390A      3.350545   391A      3.360415   392A      3.367393  
     393A      3.388852   394A      3.409148   395A      3.423357  
     396A      3.427601   397A      3.437978   398A      3.443588  
     399A      3.468983   400A      3.477758   401A      3.483936  
     402A      3.496485   403A      3.510418   404A      3.513046  
     405A      3.526409   406A      3.554072   407A      3.554977  
     408A      3.558214   409A      3.581853   410A      3.583341  
     411A      3.588365   412A      3.602945   413A      3.618745  
     414A      3.627878   415A      3.651223   416A      3.668686  
     417A      3.675620   418A      3.685124   419A      3.695867  
     420A      3.702220   421A      3.715844   422A      3.731137  
     423A      3.750260   424A      3.756019   425A      3.761302  
     426A      3.785515   427A      3.807772   428A      3.808076  
     429A      3.832805   430A      3.850540   431A      3.861345  
     432A      3.864080   433A      3.876123   434A      3.881918  
     435A      3.896390   436A      3.896585   437A      3.930933  
     438A      3.931792   439A      3.935564   440A      3.945770  
     441A      3.961743   442A      3.967605   443A      3.976949  
     444A      3.995234   445A      4.002686   446A      4.022370  
     447A      4.030300   448A      4.038690   449A      4.058446  
     450A      4.066237   451A      4.080026   452A      4.094418  
     453A      4.107306   454A      4.131708   455A      4.145430  
     456A      4.147975   457A      4.184292   458A      4.186746  
     459A      4.191555   460A      4.200376   461A      4.208416  
     462A      4.223743   463A      4.237090   464A      4.247929  
     465A      4.252979   466A      4.269042   467A      4.271815  
     468A      4.299067   469A      4.314034   470A      4.321671  
     471A      4.341423   472A      4.354404   473A      4.360495  
     474A      4.364848   475A      4.371760   476A      4.395285  
     477A      4.408423   478A      4.409669   479A      4.420407  
     480A      4.444093   481A      4.454139   482A      4.477193  
     483A      4.483586   484A      4.489267   485A      4.510654  
     486A      4.518857   487A      4.523807   488A      4.567569  
     489A      4.599579   490A      4.619278   491A      4.631988  
     492A      4.633622   493A      4.647492   494A      4.664423  
     495A      4.694655   496A      4.705669   497A      4.712013  
     498A      4.733482   499A      4.747532   500A      4.754323  
     501A      4.766520   502A      4.799415   503A      4.804751  
     504A      4.809832   505A      4.830237   506A      4.852854  
     507A      4.871957   508A      4.900016   509A      4.902667  
     510A      4.915801   511A      4.930009   512A      4.931640  
     513A      4.975195   514A      4.988037   515A      5.019049  
     516A      5.055433   517A      5.064952   518A      5.080386  
     519A      5.081799   520A      5.097354   521A      5.115016  
     522A      5.135078   523A      5.152796   524A      5.166123  
     525A      5.178317   526A      5.195118   527A      5.205013  
     528A      5.215988   529A      5.237137   530A      5.239289  
     531A      5.248444   532A      5.279485   533A      5.305545  
     534A      5.315243   535A      5.347549   536A      5.356221  
     537A      5.396781   538A      5.410718   539A      5.414589  
     540A      5.435400   541A      5.445279   542A      5.483956  
     543A      5.505436   544A      5.583314   545A      5.593998  
     546A      5.640902   547A      5.689230   548A      5.704897  
     549A      5.723756   550A      5.728671   551A      5.755615  
     552A      5.799217   553A      5.834976   554A      5.924689  
     555A      5.940269   556A      6.063137   557A      6.088321  
     558A      6.125817   559A      6.167226   560A      6.167414  
     561A      6.198180   562A      6.219285   563A      6.265381  
     564A      6.290006   565A      6.312015   566A      6.436306  
     567A      6.485663   568A      6.510613   569A      6.528730  
     570A      6.607455   571A      6.673900   572A      6.679975  
     573A      6.749963   574A      6.785556   575A      6.834265  
     576A      6.884563   577A      6.966971   578A      6.976604  
     579A      7.076056   580A      7.123303   581A      7.156645  
     582A      7.232908   583A      7.351854   584A      7.419995  
     585A      7.640344   586A      7.694074   587A      7.729484  
     588A      7.859487   589A      7.951294   590A     15.295004  
     591A     16.272883   592A     16.466708   593A     18.087895  
     594A     18.980030   595A     19.150064   596A     19.626188  
     597A     20.309955   598A     20.962393  

    Final Occupation by Irrep:
              A 
    DOCC [    32 ]

  @DF-RHF Final Energy:  -382.59359138554362

   => Energetics <=

    Nuclear Repulsion Energy =            401.8521524371139435
    One-Electron Energy =               -1315.0492703208342391
    Two-Electron Energy =                 530.6035264981766204
    Total Energy =                       -382.5935913855436183

Computation Completed

*** tstop() called on c451-083.stampede2.tacc.utexas.edu at Thu Apr  1 03:28:59 2021
Module time:
	user time   =     286.37 seconds =       4.77 minutes
	system time =       8.85 seconds =       0.15 minutes
	total time  =         48 seconds =       0.80 minutes
Total time:
	user time   =     286.37 seconds =       4.77 minutes
	system time =       8.85 seconds =       0.15 minutes
	total time  =         48 seconds =       0.80 minutes
   => Loading Basis Set <=

    Name: (AUG-CC-PVTZ AUX)
    Role: RIFIT
    Keyword: DF_BASIS_MP2
    atoms 1     entry O          line   264 file /home1/07844/xy3866/miniconda3/envs/p4env/share/psi4/basis/aug-cc-pvtz-ri.gbs 
    atoms 2-9   entry C          line   148 file /home1/07844/xy3866/miniconda3/envs/p4env/share/psi4/basis/aug-cc-pvtz-ri.gbs 
    atoms 10-17 entry H          line    30 file /home1/07844/xy3866/miniconda3/envs/p4env/share/psi4/basis/aug-cc-pvtz-ri.gbs 


*** tstart() called on c451-083.stampede2.tacc.utexas.edu
*** at Thu Apr  1 03:29:00 2021


  //>>>>>>>>>>>>>>>>>>>>>>>>>>>>>>>>>>>//
  //               DFMP2               //
  //<<<<<<<<<<<<<<<<<<<<<<<<<<<<<<<<<<<//

	 --------------------------------------------------------
	                          DF-MP2                         
	      2nd-Order Density-Fitted Moller-Plesset Theory     
	              RMP2 Wavefunction,   8 Threads             
	                                                         
	        Rob Parrish, Justin Turney, Andy Simmonett,      
	           Ed Hohenstein, and C. David Sherrill          
	 --------------------------------------------------------

   => Auxiliary Basis Set <=

  Basis Set: (AUG-CC-PVTZ AUX)
    Blend: AUG-CC-PVTZ-RI
    Number of shells: 364
    Number of basis functions: 1322
    Number of Cartesian functions: 1664
    Spherical Harmonics?: true
    Max angular momentum: 4

	 --------------------------------------------------------
	                 NBF =   598, NAUX =  1322
	 --------------------------------------------------------
	   CLASS    FOCC     OCC    AOCC    AVIR     VIR    FVIR
	   PAIRS       0      32      32     566     566       0
	 --------------------------------------------------------

  DFHelper Memory: AOs need 3.440 GiB; user supplied 22.352 GiB. Using in-core AOs.


         ------------------------------------------------------------
                                     CPHF                           
                                  Rob Parrish                       
         ------------------------------------------------------------

  ==> Geometry <==

    Molecular point group: c1
    Full point group: C1

    Geometry (in Angstrom), charge = 0, multiplicity = 1:

       Center              X                  Y                   Z               Mass       
    ------------   -----------------  -----------------  -----------------  -----------------
         O            2.751559492839    -0.837630749227    -0.000254973116    15.994914619570
         C           -0.402292507161     1.017142250773     0.000096026884    12.000000000000
         C            0.479095492839    -0.084200749227    -0.000054973116    12.000000000000
         C           -1.777108507161     0.752082250773     0.000205026884    12.000000000000
         C           -0.013813507161    -1.396736749227    -0.000108973116    12.000000000000
         C            0.081862492839     2.448584250773     0.000168026884    12.000000000000
         C           -2.269179507161    -0.553865749227     0.000151026884    12.000000000000
         C           -1.384057507161    -1.634887749227    -0.000003973116    12.000000000000
         C            1.951180492839     0.095661250773    -0.000168973116    12.000000000000
         H           -2.489102007161     1.601760750773     0.000325226884     1.007825032230
         H            0.703483492839    -2.213500749227    -0.000226973116     1.007825032230
         H            0.686059492839     2.677068250773    -0.883230973116     1.007825032230
         H           -0.773195507161     3.129564250773     0.000220026884     1.007825032230
         H            0.686087492839     2.676963250773     0.883576026884     1.007825032230
         H           -3.343112507161    -0.726015749227     0.000235026884     1.007825032230
         H           -1.762437507161    -2.654031749227    -0.000047973116     1.007825032230
         H            2.324065492839     1.136633250773    -0.000175973116     1.007825032230

  Nuclear repulsion =  401.852152437114000
  Reference energy  = -382.593591385543618

  ==> Basis Set <==

  Basis Set: AUG-CC-PVTZ
    Blend: AUG-CC-PVTZ
    Number of shells: 198
    Number of basis functions: 598
    Number of Cartesian functions: 695
    Spherical Harmonics?: true
    Max angular momentum: 3

  ==> CGRSolver (by Rob Parrish) <==

   Number of roots    =         1
   Preconditioning    =    JACOBI
   Convergence cutoff =     1E-06
   Maximum iterations =       100

  ==> CPHFRHamiltonian (by Rob Parrish) <== 

  ==> MemDFJK: Density-Fitted J/K Matrices <==

    J tasked:                   Yes
    K tasked:                   Yes
    wK tasked:                   No
    OpenMP threads:               8
    Memory [MiB]:             22888
    Algorithm:                 Core
    Schwarz Cutoff:           1E-12
    Mask sparsity (%):       4.0481
    Fitting Condition:        1E-10

   => Auxiliary Basis Set <=

  Basis Set: (AUG-CC-PVTZ AUX)
    Blend: AUG-CC-PVTZ-JKFIT
    Number of shells: 382
    Number of basis functions: 1304
    Number of Cartesian functions: 1619
    Spherical Harmonics?: true
    Max angular momentum: 4

  ==> CPHF Iterations <==

  => Iterations <=

             Iter  Converged  Remaining    Residual
  CGR           1          0          1   1.117E-01
  CGR           2          0          1   4.023E-02
  CGR           3          0          1   2.224E-02
  CGR           4          0          1   9.606E-03
  CGR           5          0          1   3.801E-03
  CGR           6          0          1   1.375E-03
  CGR           7          0          1   4.172E-04
  CGR           8          0          1   1.505E-04
  CGR           9          0          1   4.720E-05
  CGR          10          0          1   1.720E-05
  CGR          11          0          1   6.317E-06
  CGR          12          0          1   1.775E-06
  CGR          13          1          0   5.598E-07

    CGRSolver converged.

	-----------------------------------------------------------
	 ==================> DF-MP2 Energies <==================== 
	-----------------------------------------------------------
	 Reference Energy          =    -382.5935913855436183 [Eh]
	 Singles Energy            =      -0.0000000000000000 [Eh]
	 Same-Spin Energy          =      -0.4085160523104452 [Eh]
	 Opposite-Spin Energy      =      -1.2871750467674363 [Eh]
	 Correlation Energy        =      -1.6956910990778815 [Eh]
	 Total Energy              =    -384.2892824846214808 [Eh]
	-----------------------------------------------------------
	 ================> DF-SCS-MP2 Energies <================== 
	-----------------------------------------------------------
	 SCS Same-Spin Scale       =       0.3333333333333333 [-]
	 SCS Opposite-Spin Scale   =       1.2000000000000000 [-]
	 SCS Same-Spin Energy      =      -0.1361720174368151 [Eh]
	 SCS Opposite-Spin Energy  =      -1.5446100561209235 [Eh]
	 SCS Correlation Energy    =      -1.6807820735577386 [Eh]
	 SCS Total Energy          =    -384.2743734591013549 [Eh]
	-----------------------------------------------------------



Properties will be evaluated at   0.000000,  -0.000000,  -0.000000 [a0]

Properties computed using the MP2 density matrix

  Nuclear Dipole Moment: [e a0]
     X:    -3.7068      Y:     5.2725      Z:     0.0006

  Electronic Dipole Moment: [e a0]
     X:     2.6403      Y:    -4.5330      Z:    -0.0005

  Dipole Moment: [e a0]
     X:    -1.0665      Y:     0.7395      Z:     0.0001     Total:     1.2978

  Dipole Moment: [D]
     X:    -2.7107      Y:     1.8796      Z:     0.0003     Total:     3.2986


*** tstop() called on c451-083.stampede2.tacc.utexas.edu at Thu Apr  1 03:31:49 2021
Module time:
	user time   =    1027.90 seconds =      17.13 minutes
	system time =      16.64 seconds =       0.28 minutes
	total time  =        169 seconds =       2.82 minutes
Total time:
	user time   =    1315.10 seconds =      21.92 minutes
	system time =      25.52 seconds =       0.43 minutes
	total time  =        218 seconds =       3.63 minutes

    Psi4 stopped on: Thursday, 01 April 2021 03:31AM
    Psi4 wall time for execution: 0:03:39.21

*** Psi4 exiting successfully. Buy a developer a beer!
