7095                                                                    
Freq      RMP2-FC                                                     6-31G(d)            
Number of atoms                            I               22
Info1-9                                    I   N=           9
          34          32        1002           0           0         100
           6           2           1
Charge                                     I                0
Multiplicity                               I                1
Number of electrons                        I               82
Number of alpha electrons                  I               41
Number of beta electrons                   I               41
Number of basis functions                  I              200
Number of independent functions            I              200
Number of point charges in /Mol/           I                0
Number of translation vectors              I                0
Atomic numbers                             I   N=          22
           6           6           6           6           6           6
           6           6           6           6           6           6
           1           1           1           1           1           1
           1           1           1           1
Nuclear charges                            R   N=          22
  6.00000000E+00  6.00000000E+00  6.00000000E+00  6.00000000E+00  6.00000000E+00
  6.00000000E+00  6.00000000E+00  6.00000000E+00  6.00000000E+00  6.00000000E+00
  6.00000000E+00  6.00000000E+00  1.00000000E+00  1.00000000E+00  1.00000000E+00
  1.00000000E+00  1.00000000E+00  1.00000000E+00  1.00000000E+00  1.00000000E+00
  1.00000000E+00  1.00000000E+00
Current cartesian coordinates              R   N=          66
  1.39627884E+00  1.54026987E-05  3.01564416E-05 -1.39627889E+00  1.41686289E-05
 -4.78718137E-06  2.74705090E+00  2.11244549E+00 -8.66222151E-01 -2.74706113E+00
  2.11244318E+00  8.66236433E-01  2.74704291E+00 -2.11243966E+00  8.66226042E-01
 -2.74703249E+00 -2.11244429E+00 -8.66207159E-01  5.38329767E+00  2.11320128E+00
 -8.61723335E-01 -5.38330731E+00  2.11319745E+00  8.61708306E-01  5.38329002E+00
 -2.11319672E+00  8.61735225E-01 -5.38328057E+00 -2.11320169E+00 -8.61748180E-01
  6.70993253E+00 -1.35381249E-05 -2.48504039E-05 -6.70993241E+00 -1.94856872E-05
 -1.23611718E-06  1.71847920E+00  3.73911848E+00 -1.59054511E+00 -1.71849896E+00
  3.73911165E+00  1.59058299E+00  1.71845762E+00 -3.73907043E+00  1.59062520E+00
 -1.71843792E+00 -3.73907405E+00 -1.59059557E+00  6.40437538E+00  3.75831211E+00
 -1.55139768E+00 -6.40439286E+00  3.75829990E+00  1.55139047E+00  6.40436148E+00
 -3.75832620E+00  1.55137437E+00 -6.40434446E+00 -3.75833293E+00 -1.55139472E+00
  8.76470297E+00 -2.44051613E-05 -3.54467282E-05 -8.76470294E+00 -2.36735329E-05
 -3.12862993E-05
Force Field                                I                0
Int Atom Types                             I   N=          22
           0           0           0           0           0           0
           0           0           0           0           0           0
           0           0           0           0           0           0
           0           0           0           0
MM charges                                 R   N=          22
  0.00000000E+00  0.00000000E+00  0.00000000E+00  0.00000000E+00  0.00000000E+00
  0.00000000E+00  0.00000000E+00  0.00000000E+00  0.00000000E+00  0.00000000E+00
  0.00000000E+00  0.00000000E+00  0.00000000E+00  0.00000000E+00  0.00000000E+00
  0.00000000E+00  0.00000000E+00  0.00000000E+00  0.00000000E+00  0.00000000E+00
  0.00000000E+00  0.00000000E+00
Integer atomic weights                     I   N=          22
          12          12          12          12          12          12
          12          12          12          12          12          12
           1           1           1           1           1           1
           1           1           1           1
Real atomic weights                        R   N=          22
  1.20000000E+01  1.20000000E+01  1.20000000E+01  1.20000000E+01  1.20000000E+01
  1.20000000E+01  1.20000000E+01  1.20000000E+01  1.20000000E+01  1.20000000E+01
  1.20000000E+01  1.20000000E+01  1.00782504E+00  1.00782504E+00  1.00782504E+00
  1.00782504E+00  1.00782504E+00  1.00782504E+00  1.00782504E+00  1.00782504E+00
  1.00782504E+00  1.00782504E+00
Atom fragment info                         I   N=          22
           0           0           0           0           0           0
           0           0           0           0           0           0
           0           0           0           0           0           0
           0           0           0           0
Atom residue num                           I   N=          22
           0           0           0           0           0           0
           0           0           0           0           0           0
           0           0           0           0           0           0
           0           0           0           0
Nuclear spins                              I   N=          22
           0           0           0           0           0           0
           0           0           0           0           0           0
           1           1           1           1           1           1
           1           1           1           1
Nuclear ZEff                               R   N=          22
 -3.60000000E+00 -3.60000000E+00 -3.60000000E+00 -3.60000000E+00 -3.60000000E+00
 -3.60000000E+00 -3.60000000E+00 -3.60000000E+00 -3.60000000E+00 -3.60000000E+00
 -3.60000000E+00 -3.60000000E+00 -1.00000000E+00 -1.00000000E+00 -1.00000000E+00
 -1.00000000E+00 -1.00000000E+00 -1.00000000E+00 -1.00000000E+00 -1.00000000E+00
 -1.00000000E+00 -1.00000000E+00
Nuclear QMom                               R   N=          22
  0.00000000E+00  0.00000000E+00  0.00000000E+00  0.00000000E+00  0.00000000E+00
  0.00000000E+00  0.00000000E+00  0.00000000E+00  0.00000000E+00  0.00000000E+00
  0.00000000E+00  0.00000000E+00  0.00000000E+00  0.00000000E+00  0.00000000E+00
  0.00000000E+00  0.00000000E+00  0.00000000E+00  0.00000000E+00  0.00000000E+00
  0.00000000E+00  0.00000000E+00
Nuclear GFac                               R   N=          22
  0.00000000E+00  0.00000000E+00  0.00000000E+00  0.00000000E+00  0.00000000E+00
  0.00000000E+00  0.00000000E+00  0.00000000E+00  0.00000000E+00  0.00000000E+00
  0.00000000E+00  0.00000000E+00  2.79284600E+00  2.79284600E+00  2.79284600E+00
  2.79284600E+00  2.79284600E+00  2.79284600E+00  2.79284600E+00  2.79284600E+00
  2.79284600E+00  2.79284600E+00
MicOpt                                     I   N=          22
          -1          -1          -1          -1          -1          -1
          -1          -1          -1          -1          -1          -1
          -1          -1          -1          -1          -1          -1
          -1          -1          -1          -1
Number of contracted shells                I               68
Number of primitive shells                 I              172
Pure/Cartesian d shells                    I                1
Pure/Cartesian f shells                    I                0
Highest angular momentum                   I                2
Largest degree of contraction              I                6
Shell types                                I   N=          68
           0          -1          -1           2           0          -1
          -1           2           0          -1          -1           2
           0          -1          -1           2           0          -1
          -1           2           0          -1          -1           2
           0          -1          -1           2           0          -1
          -1           2           0          -1          -1           2
           0          -1          -1           2           0          -1
          -1           2           0          -1          -1           2
           0           0           0           0           0           0
           0           0           0           0           0           0
           0           0           0           0           0           0
           0           0
Number of primitives per shell             I   N=          68
           6           3           1           1           6           3
           1           1           6           3           1           1
           6           3           1           1           6           3
           1           1           6           3           1           1
           6           3           1           1           6           3
           1           1           6           3           1           1
           6           3           1           1           6           3
           1           1           6           3           1           1
           3           1           3           1           3           1
           3           1           3           1           3           1
           3           1           3           1           3           1
           3           1
Shell to atom map                          I   N=          68
           1           1           1           1           2           2
           2           2           3           3           3           3
           4           4           4           4           5           5
           5           5           6           6           6           6
           7           7           7           7           8           8
           8           8           9           9           9           9
          10          10          10          10          11          11
          11          11          12          12          12          12
          13          13          14          14          15          15
          16          16          17          17          18          18
          19          19          20          20          21          21
          22          22
Primitive exponents                        R   N=         172
  3.04752488E+03  4.57369518E+02  1.03948685E+02  2.92101553E+01  9.28666296E+00
  3.16392696E+00  7.86827235E+00  1.88128854E+00  5.44249258E-01  1.68714478E-01
  8.00000000E-01  3.04752488E+03  4.57369518E+02  1.03948685E+02  2.92101553E+01
  9.28666296E+00  3.16392696E+00  7.86827235E+00  1.88128854E+00  5.44249258E-01
  1.68714478E-01  8.00000000E-01  3.04752488E+03  4.57369518E+02  1.03948685E+02
  2.92101553E+01  9.28666296E+00  3.16392696E+00  7.86827235E+00  1.88128854E+00
  5.44249258E-01  1.68714478E-01  8.00000000E-01  3.04752488E+03  4.57369518E+02
  1.03948685E+02  2.92101553E+01  9.28666296E+00  3.16392696E+00  7.86827235E+00
  1.88128854E+00  5.44249258E-01  1.68714478E-01  8.00000000E-01  3.04752488E+03
  4.57369518E+02  1.03948685E+02  2.92101553E+01  9.28666296E+00  3.16392696E+00
  7.86827235E+00  1.88128854E+00  5.44249258E-01  1.68714478E-01  8.00000000E-01
  3.04752488E+03  4.57369518E+02  1.03948685E+02  2.92101553E+01  9.28666296E+00
  3.16392696E+00  7.86827235E+00  1.88128854E+00  5.44249258E-01  1.68714478E-01
  8.00000000E-01  3.04752488E+03  4.57369518E+02  1.03948685E+02  2.92101553E+01
  9.28666296E+00  3.16392696E+00  7.86827235E+00  1.88128854E+00  5.44249258E-01
  1.68714478E-01  8.00000000E-01  3.04752488E+03  4.57369518E+02  1.03948685E+02
  2.92101553E+01  9.28666296E+00  3.16392696E+00  7.86827235E+00  1.88128854E+00
  5.44249258E-01  1.68714478E-01  8.00000000E-01  3.04752488E+03  4.57369518E+02
  1.03948685E+02  2.92101553E+01  9.28666296E+00  3.16392696E+00  7.86827235E+00
  1.88128854E+00  5.44249258E-01  1.68714478E-01  8.00000000E-01  3.04752488E+03
  4.57369518E+02  1.03948685E+02  2.92101553E+01  9.28666296E+00  3.16392696E+00
  7.86827235E+00  1.88128854E+00  5.44249258E-01  1.68714478E-01  8.00000000E-01
  3.04752488E+03  4.57369518E+02  1.03948685E+02  2.92101553E+01  9.28666296E+00
  3.16392696E+00  7.86827235E+00  1.88128854E+00  5.44249258E-01  1.68714478E-01
  8.00000000E-01  3.04752488E+03  4.57369518E+02  1.03948685E+02  2.92101553E+01
  9.28666296E+00  3.16392696E+00  7.86827235E+00  1.88128854E+00  5.44249258E-01
  1.68714478E-01  8.00000000E-01  1.87311370E+01  2.82539436E+00  6.40121692E-01
  1.61277759E-01  1.87311370E+01  2.82539436E+00  6.40121692E-01  1.61277759E-01
  1.87311370E+01  2.82539436E+00  6.40121692E-01  1.61277759E-01  1.87311370E+01
  2.82539436E+00  6.40121692E-01  1.61277759E-01  1.87311370E+01  2.82539436E+00
  6.40121692E-01  1.61277759E-01  1.87311370E+01  2.82539436E+00  6.40121692E-01
  1.61277759E-01  1.87311370E+01  2.82539436E+00  6.40121692E-01  1.61277759E-01
  1.87311370E+01  2.82539436E+00  6.40121692E-01  1.61277759E-01  1.87311370E+01
  2.82539436E+00  6.40121692E-01  1.61277759E-01  1.87311370E+01  2.82539436E+00
  6.40121692E-01  1.61277759E-01
Contraction coefficients                   R   N=         172
  1.83473713E-03  1.40373228E-02  6.88426223E-02  2.32184443E-01  4.67941348E-01
  3.62311985E-01 -1.19332420E-01 -1.60854152E-01  1.14345644E+00  1.00000000E+00
  1.00000000E+00  1.83473713E-03  1.40373228E-02  6.88426223E-02  2.32184443E-01
  4.67941348E-01  3.62311985E-01 -1.19332420E-01 -1.60854152E-01  1.14345644E+00
  1.00000000E+00  1.00000000E+00  1.83473713E-03  1.40373228E-02  6.88426223E-02
  2.32184443E-01  4.67941348E-01  3.62311985E-01 -1.19332420E-01 -1.60854152E-01
  1.14345644E+00  1.00000000E+00  1.00000000E+00  1.83473713E-03  1.40373228E-02
  6.88426223E-02  2.32184443E-01  4.67941348E-01  3.62311985E-01 -1.19332420E-01
 -1.60854152E-01  1.14345644E+00  1.00000000E+00  1.00000000E+00  1.83473713E-03
  1.40373228E-02  6.88426223E-02  2.32184443E-01  4.67941348E-01  3.62311985E-01
 -1.19332420E-01 -1.60854152E-01  1.14345644E+00  1.00000000E+00  1.00000000E+00
  1.83473713E-03  1.40373228E-02  6.88426223E-02  2.32184443E-01  4.67941348E-01
  3.62311985E-01 -1.19332420E-01 -1.60854152E-01  1.14345644E+00  1.00000000E+00
  1.00000000E+00  1.83473713E-03  1.40373228E-02  6.88426223E-02  2.32184443E-01
  4.67941348E-01  3.62311985E-01 -1.19332420E-01 -1.60854152E-01  1.14345644E+00
  1.00000000E+00  1.00000000E+00  1.83473713E-03  1.40373228E-02  6.88426223E-02
  2.32184443E-01  4.67941348E-01  3.62311985E-01 -1.19332420E-01 -1.60854152E-01
  1.14345644E+00  1.00000000E+00  1.00000000E+00  1.83473713E-03  1.40373228E-02
  6.88426223E-02  2.32184443E-01  4.67941348E-01  3.62311985E-01 -1.19332420E-01
 -1.60854152E-01  1.14345644E+00  1.00000000E+00  1.00000000E+00  1.83473713E-03
  1.40373228E-02  6.88426223E-02  2.32184443E-01  4.67941348E-01  3.62311985E-01
 -1.19332420E-01 -1.60854152E-01  1.14345644E+00  1.00000000E+00  1.00000000E+00
  1.83473713E-03  1.40373228E-02  6.88426223E-02  2.32184443E-01  4.67941348E-01
  3.62311985E-01 -1.19332420E-01 -1.60854152E-01  1.14345644E+00  1.00000000E+00
  1.00000000E+00  1.83473713E-03  1.40373228E-02  6.88426223E-02  2.32184443E-01
  4.67941348E-01  3.62311985E-01 -1.19332420E-01 -1.60854152E-01  1.14345644E+00
  1.00000000E+00  1.00000000E+00  3.34946043E-02  2.34726953E-01  8.13757326E-01
  1.00000000E+00  3.34946043E-02  2.34726953E-01  8.13757326E-01  1.00000000E+00
  3.34946043E-02  2.34726953E-01  8.13757326E-01  1.00000000E+00  3.34946043E-02
  2.34726953E-01  8.13757326E-01  1.00000000E+00  3.34946043E-02  2.34726953E-01
  8.13757326E-01  1.00000000E+00  3.34946043E-02  2.34726953E-01  8.13757326E-01
  1.00000000E+00  3.34946043E-02  2.34726953E-01  8.13757326E-01  1.00000000E+00
  3.34946043E-02  2.34726953E-01  8.13757326E-01  1.00000000E+00  3.34946043E-02
  2.34726953E-01  8.13757326E-01  1.00000000E+00  3.34946043E-02  2.34726953E-01
  8.13757326E-01  1.00000000E+00
P(S=P) Contraction coefficients            R   N=         172
  0.00000000E+00  0.00000000E+00  0.00000000E+00  0.00000000E+00  0.00000000E+00
  0.00000000E+00  6.89990666E-02  3.16423961E-01  7.44308291E-01  1.00000000E+00
  0.00000000E+00  0.00000000E+00  0.00000000E+00  0.00000000E+00  0.00000000E+00
  0.00000000E+00  0.00000000E+00  6.89990666E-02  3.16423961E-01  7.44308291E-01
  1.00000000E+00  0.00000000E+00  0.00000000E+00  0.00000000E+00  0.00000000E+00
  0.00000000E+00  0.00000000E+00  0.00000000E+00  6.89990666E-02  3.16423961E-01
  7.44308291E-01  1.00000000E+00  0.00000000E+00  0.00000000E+00  0.00000000E+00
  0.00000000E+00  0.00000000E+00  0.00000000E+00  0.00000000E+00  6.89990666E-02
  3.16423961E-01  7.44308291E-01  1.00000000E+00  0.00000000E+00  0.00000000E+00
  0.00000000E+00  0.00000000E+00  0.00000000E+00  0.00000000E+00  0.00000000E+00
  6.89990666E-02  3.16423961E-01  7.44308291E-01  1.00000000E+00  0.00000000E+00
  0.00000000E+00  0.00000000E+00  0.00000000E+00  0.00000000E+00  0.00000000E+00
  0.00000000E+00  6.89990666E-02  3.16423961E-01  7.44308291E-01  1.00000000E+00
  0.00000000E+00  0.00000000E+00  0.00000000E+00  0.00000000E+00  0.00000000E+00
  0.00000000E+00  0.00000000E+00  6.89990666E-02  3.16423961E-01  7.44308291E-01
  1.00000000E+00  0.00000000E+00  0.00000000E+00  0.00000000E+00  0.00000000E+00
  0.00000000E+00  0.00000000E+00  0.00000000E+00  6.89990666E-02  3.16423961E-01
  7.44308291E-01  1.00000000E+00  0.00000000E+00  0.00000000E+00  0.00000000E+00
  0.00000000E+00  0.00000000E+00  0.00000000E+00  0.00000000E+00  6.89990666E-02
  3.16423961E-01  7.44308291E-01  1.00000000E+00  0.00000000E+00  0.00000000E+00
  0.00000000E+00  0.00000000E+00  0.00000000E+00  0.00000000E+00  0.00000000E+00
  6.89990666E-02  3.16423961E-01  7.44308291E-01  1.00000000E+00  0.00000000E+00
  0.00000000E+00  0.00000000E+00  0.00000000E+00  0.00000000E+00  0.00000000E+00
  0.00000000E+00  6.89990666E-02  3.16423961E-01  7.44308291E-01  1.00000000E+00
  0.00000000E+00  0.00000000E+00  0.00000000E+00  0.00000000E+00  0.00000000E+00
  0.00000000E+00  0.00000000E+00  6.89990666E-02  3.16423961E-01  7.44308291E-01
  1.00000000E+00  0.00000000E+00  0.00000000E+00  0.00000000E+00  0.00000000E+00
  0.00000000E+00  0.00000000E+00  0.00000000E+00  0.00000000E+00  0.00000000E+00
  0.00000000E+00  0.00000000E+00  0.00000000E+00  0.00000000E+00  0.00000000E+00
  0.00000000E+00  0.00000000E+00  0.00000000E+00  0.00000000E+00  0.00000000E+00
  0.00000000E+00  0.00000000E+00  0.00000000E+00  0.00000000E+00  0.00000000E+00
  0.00000000E+00  0.00000000E+00  0.00000000E+00  0.00000000E+00  0.00000000E+00
  0.00000000E+00  0.00000000E+00  0.00000000E+00  0.00000000E+00  0.00000000E+00
  0.00000000E+00  0.00000000E+00  0.00000000E+00  0.00000000E+00  0.00000000E+00
  0.00000000E+00  0.00000000E+00
Coordinates of each shell                  R   N=         204
  1.39627884E+00  1.54026987E-05  3.01564416E-05  1.39627884E+00  1.54026987E-05
  3.01564416E-05  1.39627884E+00  1.54026987E-05  3.01564416E-05  1.39627884E+00
  1.54026987E-05  3.01564416E-05 -1.39627889E+00  1.41686289E-05 -4.78718137E-06
 -1.39627889E+00  1.41686289E-05 -4.78718137E-06 -1.39627889E+00  1.41686289E-05
 -4.78718137E-06 -1.39627889E+00  1.41686289E-05 -4.78718137E-06  2.74705090E+00
  2.11244549E+00 -8.66222151E-01  2.74705090E+00  2.11244549E+00 -8.66222151E-01
  2.74705090E+00  2.11244549E+00 -8.66222151E-01  2.74705090E+00  2.11244549E+00
 -8.66222151E-01 -2.74706113E+00  2.11244318E+00  8.66236433E-01 -2.74706113E+00
  2.11244318E+00  8.66236433E-01 -2.74706113E+00  2.11244318E+00  8.66236433E-01
 -2.74706113E+00  2.11244318E+00  8.66236433E-01  2.74704291E+00 -2.11243966E+00
  8.66226042E-01  2.74704291E+00 -2.11243966E+00  8.66226042E-01  2.74704291E+00
 -2.11243966E+00  8.66226042E-01  2.74704291E+00 -2.11243966E+00  8.66226042E-01
 -2.74703249E+00 -2.11244429E+00 -8.66207159E-01 -2.74703249E+00 -2.11244429E+00
 -8.66207159E-01 -2.74703249E+00 -2.11244429E+00 -8.66207159E-01 -2.74703249E+00
 -2.11244429E+00 -8.66207159E-01  5.38329767E+00  2.11320128E+00 -8.61723335E-01
  5.38329767E+00  2.11320128E+00 -8.61723335E-01  5.38329767E+00  2.11320128E+00
 -8.61723335E-01  5.38329767E+00  2.11320128E+00 -8.61723335E-01 -5.38330731E+00
  2.11319745E+00  8.61708306E-01 -5.38330731E+00  2.11319745E+00  8.61708306E-01
 -5.38330731E+00  2.11319745E+00  8.61708306E-01 -5.38330731E+00  2.11319745E+00
  8.61708306E-01  5.38329002E+00 -2.11319672E+00  8.61735225E-01  5.38329002E+00
 -2.11319672E+00  8.61735225E-01  5.38329002E+00 -2.11319672E+00  8.61735225E-01
  5.38329002E+00 -2.11319672E+00  8.61735225E-01 -5.38328057E+00 -2.11320169E+00
 -8.61748180E-01 -5.38328057E+00 -2.11320169E+00 -8.61748180E-01 -5.38328057E+00
 -2.11320169E+00 -8.61748180E-01 -5.38328057E+00 -2.11320169E+00 -8.61748180E-01
  6.70993253E+00 -1.35381249E-05 -2.48504039E-05  6.70993253E+00 -1.35381249E-05
 -2.48504039E-05  6.70993253E+00 -1.35381249E-05 -2.48504039E-05  6.70993253E+00
 -1.35381249E-05 -2.48504039E-05 -6.70993241E+00 -1.94856872E-05 -1.23611718E-06
 -6.70993241E+00 -1.94856872E-05 -1.23611718E-06 -6.70993241E+00 -1.94856872E-05
 -1.23611718E-06 -6.70993241E+00 -1.94856872E-05 -1.23611718E-06  1.71847920E+00
  3.73911848E+00 -1.59054511E+00  1.71847920E+00  3.73911848E+00 -1.59054511E+00
 -1.71849896E+00  3.73911165E+00  1.59058299E+00 -1.71849896E+00  3.73911165E+00
  1.59058299E+00  1.71845762E+00 -3.73907043E+00  1.59062520E+00  1.71845762E+00
 -3.73907043E+00  1.59062520E+00 -1.71843792E+00 -3.73907405E+00 -1.59059557E+00
 -1.71843792E+00 -3.73907405E+00 -1.59059557E+00  6.40437538E+00  3.75831211E+00
 -1.55139768E+00  6.40437538E+00  3.75831211E+00 -1.55139768E+00 -6.40439286E+00
  3.75829990E+00  1.55139047E+00 -6.40439286E+00  3.75829990E+00  1.55139047E+00
  6.40436148E+00 -3.75832620E+00  1.55137437E+00  6.40436148E+00 -3.75832620E+00
  1.55137437E+00 -6.40434446E+00 -3.75833293E+00 -1.55139472E+00 -6.40434446E+00
 -3.75833293E+00 -1.55139472E+00  8.76470297E+00 -2.44051613E-05 -3.54467282E-05
  8.76470297E+00 -2.44051613E-05 -3.54467282E-05 -8.76470294E+00 -2.36735329E-05
 -3.12862993E-05 -8.76470294E+00 -2.36735329E-05 -3.12862993E-05
Constraint Structure                       R   N=          66
  1.39627884E+00  1.54026987E-05  3.01564416E-05 -1.39627889E+00  1.41686289E-05
 -4.78718137E-06  2.74705090E+00  2.11244549E+00 -8.66222151E-01 -2.74706113E+00
  2.11244318E+00  8.66236433E-01  2.74704291E+00 -2.11243966E+00  8.66226042E-01
 -2.74703249E+00 -2.11244429E+00 -8.66207159E-01  5.38329767E+00  2.11320128E+00
 -8.61723335E-01 -5.38330731E+00  2.11319745E+00  8.61708306E-01  5.38329002E+00
 -2.11319672E+00  8.61735225E-01 -5.38328057E+00 -2.11320169E+00 -8.61748180E-01
  6.70993253E+00 -1.35381249E-05 -2.48504039E-05 -6.70993241E+00 -1.94856872E-05
 -1.23611718E-06  1.71847920E+00  3.73911848E+00 -1.59054511E+00 -1.71849896E+00
  3.73911165E+00  1.59058299E+00  1.71845762E+00 -3.73907043E+00  1.59062520E+00
 -1.71843792E+00 -3.73907405E+00 -1.59059557E+00  6.40437538E+00  3.75831211E+00
 -1.55139768E+00 -6.40439286E+00  3.75829990E+00  1.55139047E+00  6.40436148E+00
 -3.75832620E+00  1.55137437E+00 -6.40434446E+00 -3.75833293E+00 -1.55139472E+00
  8.76470297E+00 -2.44051613E-05 -3.54467282E-05 -8.76470294E+00 -2.36735329E-05
 -3.12862993E-05
Num ILSW                                   I              100
ILSW                                       I   N=         100
           0           1           0           0           2           0
           0           0           0           0           0          -1
           0           0           0           0           0           0
           0           0           0           0           1           0
           1           0           0           0           0           0
           0           0      100000           0          -1           0
           0           0           0           0           0           0
           0           0           0           1           1           0
           0           0           1           0           0           0
           0           0           4          40           0           0
           0           0           0           0           0           0
           0           0           0           0           0           0
           0           0           0           0           0           0
           0           0           0           0           0           0
           0           0           0           0           0           0
           0           0           0           0           0           0
           0           0           0           0
Num RLSW                                   I               40
RLSW                                       R   N=          40
  1.00000000E+00  1.00000000E+00  1.00000000E+00  1.00000000E+00  1.00000000E+00
  0.00000000E+00  0.00000000E+00  1.00000000E+00  0.00000000E+00  0.00000000E+00
  0.00000000E+00  0.00000000E+00  1.00000000E+00  0.00000000E+00  0.00000000E+00
  0.00000000E+00  0.00000000E+00  1.00000000E+00  0.00000000E+00  0.00000000E+00
  0.00000000E+00  0.00000000E+00  1.00000000E+00  0.00000000E+00  0.00000000E+00
  0.00000000E+00  0.00000000E+00  1.00000000E+00  0.00000000E+00  0.00000000E+00
  0.00000000E+00  0.00000000E+00  0.00000000E+00  0.00000000E+00  0.00000000E+00
  0.00000000E+00  0.00000000E+00  0.00000000E+00  1.00000000E+00  1.00000000E+00
MxBond                                     I                3
NBond                                      I   N=          22
           3           3           3           3           3           3
           3           3           3           3           3           3
           1           1           1           1           1           1
           1           1           1           1
IBond                                      I   N=          66
           2           3           5           1           4           6
           1           7          13           2           8          14
           1           9          15           2          10          16
           3          11          17           4          12          18
           5          11          19           6          12          20
           7           9          21           8          10          22
           3           0           0           4           0           0
           5           0           0           6           0           0
           7           0           0           8           0           0
           9           0           0          10           0           0
          11           0           0          12           0           0
RBond                                      R   N=          66
  1.00000000E+00  1.50000000E+00  1.50000000E+00  1.00000000E+00  1.50000000E+00
  1.50000000E+00  1.50000000E+00  1.50000000E+00  1.00000000E+00  1.50000000E+00
  1.50000000E+00  1.00000000E+00  1.50000000E+00  1.50000000E+00  1.00000000E+00
  1.50000000E+00  1.50000000E+00  1.00000000E+00  1.50000000E+00  1.50000000E+00
  1.00000000E+00  1.50000000E+00  1.50000000E+00  1.00000000E+00  1.50000000E+00
  1.50000000E+00  1.00000000E+00  1.50000000E+00  1.50000000E+00  1.00000000E+00
  1.50000000E+00  1.50000000E+00  1.00000000E+00  1.50000000E+00  1.50000000E+00
  1.00000000E+00  1.00000000E+00  0.00000000E+00  0.00000000E+00  1.00000000E+00
  0.00000000E+00  0.00000000E+00  1.00000000E+00  0.00000000E+00  0.00000000E+00
  1.00000000E+00  0.00000000E+00  0.00000000E+00  1.00000000E+00  0.00000000E+00
  0.00000000E+00  1.00000000E+00  0.00000000E+00  0.00000000E+00  1.00000000E+00
  0.00000000E+00  0.00000000E+00  1.00000000E+00  0.00000000E+00  0.00000000E+00
  1.00000000E+00  0.00000000E+00  0.00000000E+00  1.00000000E+00  0.00000000E+00
  0.00000000E+00
Virial Ratio                               R      2.001988160230191E+00
SCF Energy                                 R     -4.602511492533708E+02
MP2 Energy                                 R     -4.617691799777938E+02
Total Energy                               R     -4.617691799777938E+02
Post-SCF wavefunction norm                 R      1.769427296400368E+00
RMS Force                                  R      1.130542341707996E-06
RMS Density                                R      1.992167092051282E-09
External E-field                           R   N=          35
  0.00000000E+00  0.00000000E+00  0.00000000E+00  0.00000000E+00  0.00000000E+00
  0.00000000E+00  0.00000000E+00  0.00000000E+00  0.00000000E+00  0.00000000E+00
  0.00000000E+00  0.00000000E+00  0.00000000E+00  0.00000000E+00  0.00000000E+00
  0.00000000E+00  0.00000000E+00  0.00000000E+00  0.00000000E+00  0.00000000E+00
  0.00000000E+00  0.00000000E+00  0.00000000E+00  0.00000000E+00  0.00000000E+00
  0.00000000E+00  0.00000000E+00  0.00000000E+00  0.00000000E+00  0.00000000E+00
  0.00000000E+00  0.00000000E+00  0.00000000E+00  0.00000000E+00  0.00000000E+00
IOpCl                                      I                0
IROHF                                      I                0
Alpha Orbital Energies                     R   N=         200
 -1.12430831E+01 -1.12423467E+01 -1.12359423E+01 -1.12359421E+01 -1.12356324E+01
 -1.12356320E+01 -1.12338657E+01 -1.12338643E+01 -1.12335526E+01 -1.12335483E+01
 -1.12333618E+01 -1.12333582E+01 -1.16309299E+00 -1.13402811E+00 -1.04784290E+00
 -1.01358801E+00 -1.00550438E+00 -9.76152088E-01 -8.46028553E-01 -8.35736307E-01
 -8.06026530E-01 -7.83535567E-01 -7.11645925E-01 -6.75954999E-01 -6.49663288E-01
 -6.31801986E-01 -6.11729628E-01 -6.01570270E-01 -5.85515098E-01 -5.78808734E-01
 -5.78050945E-01 -5.16183002E-01 -5.08040109E-01 -4.98509732E-01 -4.83930789E-01
 -4.79185590E-01 -4.78137956E-01 -3.59147566E-01 -3.32530382E-01 -3.30758359E-01
 -2.96524015E-01  1.12445411E-01  1.41866343E-01  1.42943416E-01  1.80897341E-01
  2.41777935E-01  2.41924849E-01  2.79624283E-01  2.98016146E-01  2.99532174E-01
  3.17000588E-01  3.25859374E-01  3.29042150E-01  3.40958808E-01  3.43602742E-01
  3.72691427E-01  3.77971987E-01  4.38980145E-01  4.48013647E-01  4.66798537E-01
  4.87752419E-01  4.91579218E-01  4.98661921E-01  5.18592972E-01  5.52302044E-01